<?xml version="1.0"?>
<VTKFile type="UnstructuredGrid"  version="0.1"  >
<UnstructuredGrid>
<Piece  NumberOfPoints="13143" NumberOfCells="75398">
<Points>
<DataArray  type="Float64"  NumberOfComponents="3"  format="ascii">37.86754989046045 -7.935613543949772 -26.43041724428711  35.56329367252181 -12.88805881109689 -27.01470582861035  34.53157769769631 -8.209930317527778 -27.92860971287915  39.09132471511995 -11.89617543530902 -28.23582612648925  24.3739026488448 28.55177245745927 16.53559473720623  29.24121018373434 29.90502195244871 18.83554583412144  25.23523983109394 28.72024247689613 20.46447880303089  27.93336926114636 26.55577070893572 17.22672922745268  37.33822016984479 -14.93809725213123 -29.03985665501858  36.2903917766957 -17.78939695446824 -28.73177801792561  33.13045102154629 -15.06653631982402 -28.17421030938172  35.61702181786023 -14.37717320888462 -31.49863831094151  -8.146567717688065 16.18583090090355 25.47942838945095  -7.828278262615554 15.75282418669757 29.42463682601452  -10.00329897149093 12.14528413327376 26.64798108890392  -6.603253052005423 12.86641302421648 28.96585244243388  -11.60960700106042 18.85338664634576 24.55327192254823  -9.16944536640915 17.33636717739078 21.67564241450314  -11.20915149401415 14.9517898479091 23.25430010276751  -35.30683388207437 16.13469835510489 -19.17422875482764  -31.81574515140698 19.20297243552569 -19.87449218748144  -36.27840966185742 19.79536569080701 -20.07360885213082  -35.0420279152634 18.29770854498754 -15.71749548018646  28.63513102149227 25.43413793022916 -27.28225129497602  24.77482823842039 23.67355605093162 -26.20174066110762  25.09432577857374 22.30610316700753 -29.1459125970615  29.76192307390663 22.54194017084708 -27.94355287323491  16.33372421969791 -5.068747571286104 -46.7426587705036  17.57933306672237 -7.731569183021274 -43.10408747517022  19.28344510389145 -6.486269013818703 -45.43674115415138  17.26025500495192 -4.73887878893995 -42.1886439059782  16.89916579907119 -33.76764208317982 -27.04407006740427  13.84405528388045 -38.14274035146524 -28.52879388290275  11.9002271286714 -35.80017326215748 -27.47923200206563  13.55810773339227 -33.44978605810293 -28.92656765702084  -44.56441817002003 2.549874552505824 -22.00312501902116  -41.86249670411305 -0.1278308058765494 -21.20576221586742  -46.04593198348488 1.136301101931955 -19.16505987224003  -45.150217455218 -1.699617228620226 -21.00976840296188  -47.72558139619723 -8.547184294193038 -11.37824584145417  -45.47429281816061 -6.367714210605762 -11.54508837451469  -46.70362159204286 -8.741095968292392 -14.89577211862261  -47.57294278850333 -6.211304379381688 -13.87262587246506  7.711237835935256 -0.8780610748303501 -27.70458531386697  8.916171196880256 -1.421067951768907 -24.34426694156368  6.60727607948432 1.046918753176962 -24.06389112228898  5.598394135023588 -2.662862623996431 -25.04338195056068  -25.98369688887782 34.1152973727305 -15.26512491534067  -27.59860110619085 32.90884595004418 -17.69567471978895  -24.98029148110813 30.12533552426665 -16.87035049828227  -25.99704669404911 31.57771485102532 -13.38589375698385  38.18045083809395 23.68246650031235 21.00879483460436  36.03623526591294 19.89559177048379 20.91121982986473  33.66650820563627 23.68436420701981 19.08782458052315  35.93543402669147 20.78511055657544 16.63932215647142  -14.25647843022555 -29.47167849523844 24.90751781269555  -14.24986084080907 -25.99047000247177 22.49962125288993  -15.16669097563765 -30.183764497291 21.20645742651079  -18.33225117670725 -28.99827428682823 24.41703828164595  23.33238910399291 -23.81835807473997 3.146211940337778  20.28456742574156 -20.93369897971637 2.32486283960385  21.27009938478595 -25.92998579210565 4.225326581495121  21.07248916514484 -22.49043297000179 5.064809699422484  5.208985046834178 -1.005910931210493 17.87051260583994  8.903459651808578 -1.159270019438148 17.09481424606845  8.886209062943578 2.512115725381688 17.46072496245066  7.911244270842393 0.2906271288097086 21.42403136737662  -2.331467845365215 -36.78906571475066 -15.98756524596134  0.5364928379201931 -32.57588643785131 -14.47259336884339  1.041786588026653 -35.73420396884192 -14.72607410807709  -0.5174638351815246 -34.63440246962645 -18.20399502873072  -33.86530707638571 10.88697640557973 27.54741551834248  -33.61972711988357 14.81466181324659 27.83652231182407  -30.74322129952142 12.13477754858685 26.33132108236088  -35.74922155922737 13.68684256230845 24.71180119071755  0.7553067762834398 -6.285528657854514 5.086320658791964  2.645758526965471 -3.00020497845504 2.875234405613138  0.8325149265807124 -3.756096563298667 7.391540837178393  5.161961696450819 -4.77001745689786 4.170492406789519  -3.944306470660696 15.99590686384182 17.71682748214048  -6.752543820692509 16.85639356388814 14.937636957378  -6.805988587681274 19.92039943515869 15.85277471861591  -2.753849702838104 19.48973811458235 17.19547218706908  -8.557646000993843 22.63977472699008 37.23209098438986  -8.244530438807974 20.21429046414666 33.41210809394882  -7.726074181074895 24.94905459542772 34.48714049115  -5.120948429734916 20.7898102318077 35.94796479845358  16.51457616506387 -2.241147895385517 -35.62425074559831  16.91292863156357 2.53017216272957 -32.95727115915868  18.32564733133676 -0.6253894702198917 -32.04230016595722  19.51708288715865 -0.7672323350906725 -35.07640459896946  2.425566191530696 19.88262998443319 13.39493863244188  -0.3778720981135262 21.33908203897014 12.61929957272045  -1.552740728488903 19.05093654747969 10.24888087840669  -0.1608328942106627 18.53178700358441 14.69458255185562  -15.5458469480223 38.99753988853615 2.077894400034812  -15.81085097086621 41.17702836383734 6.545520959352415  -13.52586005053529 41.56942630302814 1.648372805953024  -14.59002151182409 43.70613107199188 4.320427786486068  -40.59822851998824 -15.13807493025683 5.100721643574073  -39.94155014246595 -14.88314375743944 8.233683798137562  -40.50230877693004 -11.58759015356466 8.936582464142257  -43.29606756760354 -11.73194389888058 6.976157981394454  -31.98080854769391 -9.295808861836933 -21.07054272184775  -34.95811019285407 -10.08127560544695 -22.78260479137985  -31.51159297982119 -12.18426162751685 -23.58023359986969  -34.03352332502922 -12.97243472363796 -21.78207629102896  16.53653642758472 10.76683273830398 -40.21659653879149  16.29747516013478 13.43627206394787 -36.39183695540147  16.44233590569901 14.87830315083883 -40.55011747729849  13.27619293939163 14.63041144318854 -38.11116527032063  -29.88928884440179 2.923309036378906 -0.5773205285930398  -28.53800810806672 5.754495895424661 1.492676683873369  -30.32703628217806 8.45794050417792 -1.487021399159615  -31.88429314905235 4.78167944163015 -2.752979842863643  37.90857014569768 -11.98691003515195 29.70134113759467  33.53158912122863 -13.15722742912143 27.65891871270853  36.81328928736468 -12.76210518893376 26.24214544811493  37.82259224195964 -15.68957811491391 28.06856602313119  -29.06539666202242 -22.78557481868534 33.11438161753841  -23.92354931575731 -22.20542607426741 31.14063450824467  -26.44032030746924 -22.48347605529176 35.51045693058418  -26.83760513110408 -26.49111430293708 32.42057313721327  14.86984753870849 -22.91393007664425 -24.18635304617381  10.20409501992255 -20.58309662706681 -23.28847340108198  11.40876701116004 -23.40094651824248 -25.96647143929783  9.670284856864949 -23.66269258371504 -22.90948560648341  -25.65162586365544 3.221894416062017 -6.19182324152624  -25.57981575126779 6.262663912349103 -5.035242481978942  -24.38926108837809 6.25856898115509 -8.760735620026574  -28.17268143455453 4.563943984039105 -7.751405442206059  13.38330234487115 44.11949371472775 7.181332017264089  14.20436727386307 46.70176241129538 9.945203139650554  12.06574241638637 43.80214309208177 10.96904939629252  15.06595377180853 41.80020309192005 10.52554086849389  -40.88342484071426 -5.044725943135032 4.604636926824854  -43.88365614457106 -9.470273933421538 2.816373429826152  -44.60805614190585 -5.982446419953514 6.089050879109943  -43.36211699401957 -4.220954724975101 1.421373036809848  -18.32852813986553 14.47676117406832 -32.45126335347519  -16.14290214094259 10.91912175676784 -30.41610088662678  -20.61713974847472 9.795484720503168 -30.19141981148975  -19.14988889483591 12.36477305090921 -34.80213623052423  3.757380212745201 34.22126623165125 -17.60976970288099  1.601636619309642 31.56020014351332 -20.10342943532406  5.118313970836652 33.12871336867338 -21.0736135689491  3.670400930047096 30.43448829215091 -16.7750396734064  22.56101955915767 -9.256372343606031 -30.03766630537151  25.191966484314 -10.94669342098374 -26.23803809480981  26.39305260113272 -7.239264158426749 -28.50683069886188  22.42773588146634 -6.679816682866364 -26.98228114346641  28.77078773603429 12.18385884166162 25.79568132290785  25.67691695393276 9.5554866471248 24.28367655719615  28.52384558315952 9.401360549767235 22.79897553303391  28.22304541312561 8.866313330296855 26.12089309685788  23.60449843679856 -30.8448188106048 -19.10584007610272  28.49851637369686 -28.9117187843278 -21.09154627822752  24.66178591001086 -27.31419332720838 -21.02768638072996  25.70925416696477 -28.53377445618937 -17.27393397953468  9.213103916706636 -26.68572015005969 28.28608806457812  10.505025408118 -29.68635993975093 28.8553574502117  7.256611006403888 -26.8271078650679 31.35097849611194  6.056437891562712 -30.05614349016621 29.23331028765643  15.50104764770236 -18.48130751598013 14.05394176247047  12.93378882166815 -15.42225987941394 12.81074170633443  12.9392467967219 -18.92772977808593 11.57206641414162  12.52093936708481 -16.66174775510501 15.76430904366545  33.02430654853742 -0.9064787009538451 14.0799187153317  32.6901378651485 -0.02962736575660296 17.46436696186377  30.33809708265193 -3.264344536064789 17.36773856304276  34.74649180881384 -3.023197231555368 16.57879735111967  -22.24384450373285 20.22825323271588 33.06139293230303  -21.85151880017857 17.13109078167979 31.84447747328547  -21.4485072425418 19.47781643084526 36.2286
[...]
<PointData  Scalars="f_18"> 
<DataArray  type="Float64"  Name="f_18"  format="ascii">-5.4303908168373791e+03  2.1987445190315370e+02  7.2524200524570654e+02  0.0000000000000000e+00  5.0599258103402994e+04  1.9500977520359414e+04  4.2056544776239847e+04  3.0787009707942907e+04  0.0000000000000000e+00  0.0000000000000000e+00  7.4910266833418536e+03  0.0000000000000000e+00  1.4205822646563457e+05  1.4054941329148068e+05  1.3430522012253385e+05  1.4580066855135624e+05  1.2762215275402625e+05  1.3639089817981006e+05  1.2781642299121051e+05  -9.3080888181471764e+03  7.6263906719422639e+03  -3.4055994781829841e+03  -1.1618967561870671e+04  1.6169382457159780e+04  4.4179295285205866e+04  3.8813141120711509e+04  1.4522468151787209e+04  0.0000000000000000e+00  3.4164729097154006e+04  0.0000000000000000e+00  4.9392866514949412e+04  4.3395890548565665e+04  0.0000000000000000e+00  4.5364103775486001e+04  5.0104617598262936e+04  0.0000000000000000e+00  -1.8529852596266868e+04  0.0000000000000000e+00  0.0000000000000000e+00  0.0000000000000000e+00  -2.5308082806961327e+04  0.0000000000000000e+00  0.0000000000000000e+00  1.4237693302050835e+05  1.3252211138352196e+05  1.3968519757668665e+05  1.4402481826959646e+05  3.0223434290858160e+04  2.2385804283883688e+04  4.5001853818831652e+04  3.9339286650963186e+04  0.0000000000000000e+00  -3.3046331829491342e+03  5.3253575324383919e+03  -6.7349391971737396e+03  9.4295117695470690e+04  1.1095663167359923e+05  9.7677605118719905e+04  7.4662647286504478e+04  4.8360893187233472e+04  6.1084251918219998e+04  6.7085332897388027e+04  6.0843388234694954e+04  1.2766288438952033e+05  1.1376360036810731e+05  1.1552756690310966e+05  1.2928491622119494e+05  1.2515755787944571e+05  1.4831943242147527e+05  1.3446000691573630e+05  1.3174241446596180e+05  4.1593072287452642e+03  5.0414696178658178e+03  1.4598262845465961e+04  -3.4549029006243854e+03  1.0967089221789053e+05  1.0325963828320200e+05  1.1061293367251317e+05  1.0087094906493160e+05  1.4486822925568069e+05  1.3529356559603001e+05  1.4093332336909973e+05  1.5073932865765237e+05  7.8779819264023536e+04  1.1801847686479270e+05  9.2850045523130975e+04  1.0908251206020541e+05  9.4548927605244317e+04  9.8069349382973334e+04  9.0333570252149002e+04  7.8132784836270628e+04  1.4764631806355604e+05  1.5072532503584420e+05  1.4320472920908849e+05  1.4844729314871482e+05  8.6249797744720054e+04  6.4683347566729673e+04  7.8375669993711010e+04  5.0208342298058793e+04  -4.0510400047555355e+04  -3.8555423756107019e+04  -4.5304652967354363e+04  -3.9342649440067311e+04  -4.4070516128546187e+03  -8.6138181809469188e+03  6.4809082362448653e+03  -5.1496897044197194e+03  6.2107502939577753e+04  8.2363126900853415e+04  4.7050823911367610e+04  8.4944803829126729e+04  -4.4077779215678493e+04  -3.2877383559159665e+04  -3.9036204304005209e+04  -5.2339008635275553e+04  0.0000000000000000e+00  6.2565140508361192e+03  -2.5741051101840649e+03  0.0000000000000000e+00  0.0000000000000000e+00  3.9692226455070624e+04  0.0000000000000000e+00  0.0000000000000000e+00  1.0801701180592680e+05  1.3354444437526088e+05  1.2287541623423751e+05  1.3459794757578702e+05  -1.2590159510468307e+04  -1.0190402506890014e+04  3.8058085072382673e+03  -2.5023988031952027e+04  4.6927861953248364e+04  0.0000000000000000e+00  4.6851558919039577e+04  5.6277153996946938e+04  -6.6446721516639620e+04  -4.7757206216283754e+04  -4.5534963357233115e+04  -6.0959495929989702e+04  8.3411205244616154e+04  1.0294891603169270e+05  7.6114466064620021e+04  7.5038512418130471e+04  1.3304733259271202e+05  1.4096028354156640e+05  1.2538318768946931e+05  1.4759977368759559e+05  6.3539317500348829e+04  4.4923499946191245e+04  3.8598785713498837e+04  6.1742820002207358e+04  2.4285709045734446e+04  3.7636045698870003e+04  1.7389544345058661e+04  2.5503375347730002e+04  4.8401472101419247e+04  2.2497543077773280e+04  4.7387708419394854e+04  4.2328158305071418e+04  1.1560028893098136e+05  9.2483072117670381e+04  1.0529113806090190e+05  1.0259890646403561e+05  9.6949831640071134e+04  1.0323817251344465e+05  1.0864051773463347e+05  1.1286540085077839e+05  -3.7408338997043356e+04  -2.5368244879862901e+04  -1.3123479608144029e+04  -3.4955001732917379e+04  4.6739938814095069e+04  6.0058469522981271e+04  3.5794448042239150e+04  3.0074220068671559e+04  1.2730671262824984e+05  1.2594264051097169e+05  1.3008526679584665e+05  1.1606128424064576e+05  0.0000000000000000e+00  5.0013455662432258e+04  4.8208280110794694e+04  0.0000000000000000e+00  -9.4150797489241759e+03  -8.9117242934503665e+03  -4.2429753440551489e+04  0.0000000000000000e+00  0.0000000000000000e+00  0.0000000000000000e+00  4.4605478687266892e+04  3.8572602250470860e+04  8.2139621340239042e+04  4.7372322975811367e+04  8.2780853478650024e+04  8.9724639714607270e+04  1.0076004794164593e+05  7.1112148303295951e+04  0.0000000000000000e+00  0.0000000000000000e+00  4.5463952547049419e+04  6.2717824319861364e+04  -4.4649416432065445e+04  -5.4330034851851429e+04  -4.0782091571218982e+04  -4.3816048282455515e+04  -1.2918038760445819e+04  1.3921332118508286e+04  -7.7770002263806200e+03  -4.5394922102126166e+03  1.1180805046426701e+05  9.6237046195088478e+04  1.1292210630618867e+05  1.1269211605879969e+05  7.8450235166299361e+04  6.7851812213027442e+04  9.0658898066623253e+04  8.1564231848147640e+04  0.0000000000000000e+00  4.8015399829621034e+04  4.2837636702511729e+04  0.0000000000000000e+00  2.2238721231262149e+04  3.3791552073006598e+04  1.0938201018036241e+04  2.2808264804335231e+04  1.4872061568855590e+05  1.4240245997944256e+05  1.4788063557651991e+05  1.3768389791867448e+05  1.9784544796442511e+04  2.0562731766303536e+04  3.8899739474893002e+04  2.8419680817231641e+04  1.0583855511375073e+05  1.1815431015821683e+05  1.2468470471226034e+05  1.1193097117769346e+05  -4.6475689426972363e+04  -4.6204177257889030e+04  -6.1267064448465542e+04  -5.0027076022498892e+04  3.3709812491936442e+04  0.0000000000000000e+00  0.0000000000000000e+00  0.0000000000000000e+00  -2.6050811146460379e+04  -3.9915273708278888e+04  -5.2464431865266553e+04  -3.8628386939048600e+04  5.5872408562158897e+04  0.0000000000000000e+00  4.6232064697638278e+04  0.0000000000000000e+00  4.0275990283987740e+04  4.3955635724387823e+04  5.7324771807098907e+04  4.0013894105671403e+04  1.5587161820100975e+05  1.4552441012698220e+05  1.4464635674233321e+05  1.5276041910054471e+05  3.9301380632190587e+04  5.6355231093952360e+04  6.3444845499724579e+04  5.3829652557217385e+04  7.2116492728594530e+04  -3.9710725256200043e+04  -3.5440041144743358e+04  -4.6417457331684731e+04  -3.4364521687264045e+04  1.4395319405467439e+05  1.4438086244709636e+05  1.4988344387882383e+05  1.5009923163252289e+05  5.7556658025324905e+04  0.0000000000000000e+00  0.0000000000000000e+00  0.0000000000000000e+00  3.6145148711806192e+04  4.0579050285106423e+04  5.5140430416142022e+04  6.9935700754218386e+04  3.0127123682828711e+04  5.8262012437062156e+04  5.4708867016586570e+04  5.9935520559877783e+04  -1.3935468780982161e+04  -1.6886024683273910e+04  -2.5606796273765674e+04  -2.0524119996047019e+04  1.3600498954582328e+05  1.2590266671952972e+05  1.1671157789761198e+05  1.2015530467655072e+05  -5.9043971675998975e+04  -4.6768523441710342e+04  -3.7559073479400613e+04  -5.0283348678525384e+04  -1.6922976541426022e+04  1.1238682028644148e+03  -2.2430419138326935e+04  -2.5653431981688602e+04  6.8238754358018923e+04  4.8486309534925749e+04  9.2398022729408782e+04  4.2011977789957098e+04  0.0000000000000000e+00  3.4319245688104165e+04  0.0000000000000000e+00  0.0000000000000000e+00  1.1976682459756441e+05  1.2928785757200890e+05  1.3774692492750898e+05  1.0897925490471876e+05  1.9889156433917597e+04  2.9438161830812769e+03  1.2831785090660158e+04  2.4930039687929147e+04  9.0236868223180390e+03  3.2686204178427601e+04  2.9982741167375829e+04  2.2073974423861488e+04  -3.5010943154145447e+04  -6.1555669324025170e+04  1.0409574901498796e+05  8.8393810639928299e+04  7.3229869858515827e+04  6.9963376642531322e+04  4.1573800576836053e+04  0.0000000000000000e+00  6.1176099162281978e+04  4.8738203838089335e+04  9.9066076060745283e+04  7.0849518278173680e+04  9.2596222787240418e+04  8.4002460032196817e+04  6.0862453785212994e+04  6.5441333811704433e+04  5.5881977078141681e+04  2.9422706534618883e+04  3.3451418575682161e+04  0.0000000000000000e+00  2.5041589467289705e+04  1.7913651918849133e+04  2.6932562462273221e+04  9.1391334735770761e+03  2.9712966737574050e+04  1.4440735332877384e+05  1.2918302858380030e+05  1.2666779241015951e+05  1.4018705003508634e+05  6.1186382204063630e+04  8.2274388315233577e+04  5.4238718768493636e+04  6.6876584404564972e+04  7.7336227453871761e+04  8.5932644058421429e+04  7.7789995872452026e+04  1.0644179850327446e+05  9.8368166267825465e+04  8.1164841827712778e+04  -5.2922271561056070e+04  -4.9666698003093443e+04  -5.4592258719904625e+04  -5.9065372881568568e+04  1.2393215491893623e+05  1.3054743356376998e+05  1.1702419212477926e+05  1.3766958477174724e+05  -1.8880542828704929e+03  -1.1748309644622208e+04  2.1059041942761680e+04  -1.0248724784184471e+03  4.9447053483573261e+04  0.0000000000000000e+00  0.0000000000000000e+00  0.0000000000000000e+00  6.8518520087019395e+04  4.5519039970818936e+04  5.7520463053561070e+04  5.1651563611992206e+04  9.0133176793244653e+04  1.0644191617325830e+05  1.1407330813991869e+05  8.4447425869232015e+04  1.0017463482194617e+05  6.3801413357414938e+04  8.5815884126528821e+04  6.0893416498390965e+04  -9.2194535902042117e+03  -4.2802092505126047e+03  -5.5269950774922017e+03  -1.2954574075336162e+04  1.3911026614128228e+05  1.3654643349671026e+05  1.5016644014164028e+05  2.6288923440183760e+04  3.1314367508692099e+04  2.0123141905234035e+04  3.6395077273316303e+04  0.0000000000000000e+00  0.0000000000000000e+00  0.0000000000000000e+00  1.5277828788969354e+05  1.5456239968444008e+05  1.5271099820598654e+05  1.4930847048222990e+05  5.7698643108631251e+04  6.4067038816053777e+04  1.1253822963606336e+05  1.0832018974710346e+05  1.1978166669201932e+05  1.1745677558335886e+05  7.9837557725997074e+04  6.9532603896637011e+04  7.4158369801139066e+04  9.3376467273335307e+04  2.3451402905473402e+04  3.5779003716671461e+04  1.8438177838990072e+04  2.8048470683068434e+04  1.0221292810805386e+05  7.9817092020854310e+04  8.4924546843605771e+04  8.9032628042542667e+04  6.1474472682119747e+04  5.2645486827079760e+04  5.8833404260817741e+04  4.2192085882386877e+04  0.0000000000000000e+00  1.3436018909365534e+03  1.0934482572061797e+04  0.0000000000000000e+00  0.0000000000000000e+00  7.4625476815316879e+03  0.0000000000000000e+00  7.6473894959603113e+03  3.7360250379888821e+04  5.7031471681921648e+04  3.4238548167216359e+04  2.2043090837111216e+04  0.0000000000000000e+00  -1.6352497703564464e+04  -1.8208333577237227e+04  0.0000000000000000e+00  0.0000000000000000e+00  0.0000000000000000e+00  6.8384286557615807e+04  0.0000000000000000e+00  0.0000000000000000e+00  5.7256116376742830e+04  4.4451605765394102e+04  0.0000000000000000e+00  -6.1505698906944948e+04  -6.8682594826243658e+04  -6.8265379552669954e+04  -6.9710659534669452e+04  8.5749632454421982e+04  9.9775797637696334e+04  9.0492221169268378e+04  9.9540441442372554e+04  1.3720044348858183e+05  1.3295004028180707e+05  1.3970429106722141e+05  1.4585385698097755e+05  1.5584240315622784e+05  1.5251553615777180e+05  1.5311020524005801e+05  1.5688483315317688e+05  -2.9378633470982109e+03  -1.9558103953803326e+04  -1.5486203364565696e+04  0.0000000000000000e+00  0.0000000000000000e+00  4.9901753092145213e+04  0.0000000000000000e+00  0.0000000000000000e+00  6.3510872048002428e+04  0.0000000000000000e+00  0.0000000000000000e+00  1.3144919805087495e+05  1.4385132324829308e+05  1.3603403098477173e+05  1.3910463539555666e+05  0.0000000000000000e+00  4.6921156370208388e+04  0.0000000000000000e+00  0.0000000000000000e+00  1.0080236737518995e+05  9.8371106194534514e+04  1.0360288255910494e+05  -2.9731865906132072e+04  0.0000000000000000e+00  0.0000000000000000e+00  0.0000000000000000e+00  1.3857813346691983e+05  1.2896420899006995e+05  1.2349250159085951e+05  1.4863155920921723e+05  0.0000000000000000e+00  -1.6501705190027758e+04  0.0000000000000000e+00  0.0000000000000000e+00  1.5399573668184606e+05  1.4508483641575821e+05  1.4489297628596798e+05  1.4438808623510186e+05  1.2694541820866604e+05  1.3413788832753012e+05  1.1687608918279805e+05  1.4000328365818685e+05  5.5721274829533373e+04  7.9019176391499321e+04  8.4004952860187987e+04  8.8779333067410509e+04  1.0519472402423948e+05  1.1436940631428943e+05  1.1632356722666656e+05  1.0353681707255634e+05  6.3868078731300862e+04  6.4718716776395144e+04  4.1090116843567630e+04  6.8912988167778734e+04  -2.8231439764025075e+04  -2.5520603046715562e+04  -4.0851013656522839e+04  -2.8458493048964854e+04  4.8146158569446132e+04  4.0269528779326982e+04  2.4884505992449063e+04  2.6594004054926492e+04  1.2935872433310501e+05  1.3729440534812084e+05  0.0000000000000000e+00  6.8378396040248248e+04  7.0876724914848484e+04  -4.3772821673790429e+04  -3.4036754598160980e+04  -5.3218263630172260e+04  1.1090686471933895e+05  1.2294536562442474e+05  1.0973589378048445e+05  7.6092535458575192e+04  0.0000000000000000e+00  5.9661031732014562e+04  0.0000000000000000e+00  4.4156452502657827e+04  0.0000000000000000e+00  6.2034184907537267e+04  5.2068764080068249e+04  1.2743017721482940e+05  1.3370221914238296e+05  1.3760249299127681e+05  1.1695938733964956e+05  8.2905072869175710e+04  7.2355410677868917e+04  5.3943754001897156e+04  7.2667020267894506e+04  4.4872340902660013e+04  5.1907886469065241e+04  0.0000000000000000e+00  0.0000000000000000e+00  6.7041509013219053e+04  8.3046039040300544e+04  9.0121837722461234e+04  6.6810899550183167e+04  0.0000000000000000e+00  -2.4523003575048469e+03  0.0000000000000000e+00  0.0000000000000000e+00  2.7029371567756847e+04  2.4914699776458110e+04  3.1720622475596250e+04  1.9405996446076508e+04  1.1743049626444411e+05  1.3537278664229185e+05  1.2748915907682790e+05  1.3343802534357537e+05  1.4868041390215006e+05  1.5235692050826110e+05  1.5275395993806957e+05  1.3824255004363120e+05  3.1306583735060198e+04  2.3604857900782750e+04  3.1977231235519492e+04  4.9267226986237969e+04  2.5918176273070771e+04  2.1151019862791960e+04  4.2919743738308593e+04  0.0000000000000000e+00  1.1261023615055898e+05  1.2918722270005902e+05  1.2116615361502183e+05  1.2371787675180327e+05  0.0000000000000000e+00  0.0000000000000000e+00  -2.2765144730815217e+02  -7.3579339620826677e+03  -5.9836130560506841e+04  -5.4347554580818156e+04  1.0838332552408114e+05  1.2027251488899720e+05  1.3291270135314993e+05  1.2718657365444129e+05  0.0000000000000000e+00  5.0218516303476703e+04  0.0000000000000000e+00  0.0000000000000000e+00  0.0000000000000000e+00  0.0000000000000000e+00  -3.8930834638888729e+04  -3.5544511864630476e+04  1.5620216563951669e+05  1.5652934195396845e+05  1.5379995735281409e+05  1.5541074297510259e+05  -3.3161565039211987e+03  -2.0121420560392684e+02  -8.0332181624773675e+03  0.0000000000000000e+00  7.6352480540881734e+04  4.9768022515994351e+04  5.3039756075017460e+04  7.2184781573094806e+04  9.5436270988112607e+04  8.9776446336561727e+04  6.0199232146905539e+04  3.9557470525592616e+04  4.5832039174831749e+04  9.5931140324088061e+04  1.0647194189179203e+05  8.3371621934562369e+04  1.2178919118911712e+05  9.7729628037307004e+04  6.0172628294165748e+04  5.3753554995101833e+04  7.7760739685420223e+04  1.0402129551147592e+05  1.8918471771038297e+04  0.0000000000000000e+00  2.0245332140562474e+04  0.0000000000000000e+00  1.6259093255273890e+04  2.4307868805695438e+04  2.1737958590272505e+04  3.8523870485807488e+03  8.9193076699929676e+04  1.0639266885868611e+05  1.0734891120355821e+05  6.5170403941029006e+04  4.6786236435559316e+04  6.3677660424409165e+04  5.1798747512509464e+04  7.1405929662526978e+04  0.0000000000000000e+00  0.0000000000000000e+00  0.0000000000000000e+00  -8.3925197651865765e+03  -2.9295530260553232e+03  2.6107708217668351e+03  6.0123898330070269e+03  4.4331028386425379e+02  1.2382631756197118e+05  1.2079214863632154e+05  1.0942816153698672e+05  1.0590970632010484e+05  -2.2338132608406642e+04  -3.8580747534572045e+04  -2.3294505408005349e+04  1.4821154351210009e+05  1.5563651164548830e+05  1.4621538827604993e+05  1.4881337563340584e+05  0.0000000000000000e+00  4.2431482865274185e+04  5.2394063213391979e+04  0.0000000000000000e+00  1.5408744175719321e+05  1.5022141646629857e+05  1.5477968260527641e+05  1.4770598753603073e+05  5.4580046632911100e+04  0.0000000000000000e+00  0.0000000000000000e+00  5.1467586223786842e+04  4.2932269554445964e+04  0.0000000000000000e+00  0.0000000000000000e+00  0.0000000000000000e+00  0.0000000000000000e+00  6.2349921602705646e+04  0.0000000000000000e+00  5.4173560967411475e+04  1.4754139278714888e+05  1.4243775966380831e+05  1.4467225518206513e+05  1.5123286826044234e+05  1.2597014634763173e+05  1.2551787142171631e+05  1.0303406935849682e+05  0.0000000000000000e+00  -6.1270644322287189e+03  0.0000000000000000e+00  0.0000000000000000e+00  1.2513960771412174e+05  9.1554628891239641e+04  1.0975966314757241e+05  1.1379053704430784e+05  1.0743163459127302e+05  7.3487308346362013e+04  1.1686333205805915e+05  9.7782487810608713e+04  2.1245812322192551e+03  0.0000000000000000e+00  1.0922239263452660e+04  0.0000000000000000e+00  8.4663185676064182e+04  5.1346796181647165e+04  5.5164714711465407e+04  8.5725155708614140e+04  1.5430629182002365e+05  1.4683102603798074e+05  1.4408046213041528e+05  8.7997795599161254e+04  8.2233164627264428e+04  8.2541998861535641e+04  6.7519244082834673e+04  -4.0964694193923548e+04  -4.4142021948265428e+04  -4.5788298995319397e+04  -4.4977761363434263e+04  -3.2155298805298012e+03  1.1804084722819914e+03  -6.1193323716699879e+03  3.0080454970339038e+03  1.3618654327334999e+05  1.2821369762056285e+05  1.1668323335769339e+05  1.2939976731016338e+05  1.3940335982352213e+05  1.4886308299129966e+05  1.5272328266827000e+05  1.4428130602202369e+05  8.3346235537794855e+04  9.4483955933021731e+04  8.9000660093832979e+04  5.7033197649837050e+04  1.2720861767257859e+05  1.3702128572442662e+05  1.2507960569140280e+05  1.4205671024399545e+05  1.4825345744715518e+05  1.5362358450034529e+05  1.4556604166004146e+05  1.4833573262619961e+05  1.0468119839778502e+05  1.1723139556398980e+05  1.1101645329917726e+05  1.1640704635646203e+05  0.0000000000000000e+00  5.9906403603425562e+04  0.0000000000000000e+00  3.0404962871112955e+04  1.8333155632222020e+04  0.0000000000000000e+00  1.0523843913686640e+04  1.0456611805090210e+04  1.3405264077352957e+05  1.4079960839319672e+05  1.3733884333460862e+05  1.4723703990041267e+05  1.3899646791110611e+03  6.6163932802551562e+03  -2.4723297648714270e+03  -2.2504046317271608e+04  1.1181630243884498e+05  1.0506821245286877e+05  1.0325618887218772e+05  1.2495329258972294e+05  -5.9667244918928271e+04  -6.3183658347834484e+04  -6.3664878684361829e+04  -7.0127818981445700e+04  1.0376476389231652e+05  9.7166021920506653e+04  8.9293080480072706e+04  1.1525182433962281e+05  -1.1983770306811130e+04  -3.7303904427400907e+04  -1.8016516384076469e+04  -4.6995685436026673e+04  1.5425489853156015e+05  1.5409649152440135e+05  1.5541398931991149e+05  1.5519853296967002e+05  4.2603591665646498e+04  4.5512561611943951e+04  6.1469372620884700e+04  1.5296793418659622e+05  1.5554505999011075e+05  1.5359801833341728e+05  0.0000000000000000e+00  0.0000000000000000e+00  6.1747388287286754e+04  0.0000000000000000e+00  1.3694173658935088e+05  1.3635386331924345e+05  1.3535136639656874e+05  5.3020918683333737e+04  6.6858465572458677e+04  8.2609373673799651e+04  5.3241730219781755e+04  7.4821365627241496e+04  7.9520690333081599e+04  7.5673033508924083e+04  9.9060313649383490e+04  1.4485192195283153e+05  1.2973022696817831e+05  1.3374213558563538e+05  1.3878844367823206e+05  4.2976750100258789e+04  5.7796195123898920e+04  6.6551116940725609e+04  0.0000000000000000e+00  -5.36476729