<?xml version="1.0"?>
<VTKFile type="UnstructuredGrid"  version="0.1"  >
<UnstructuredGrid>
<Piece  NumberOfPoints="13128" NumberOfCells="75076">
<Points>
<DataArray  type="Float64"  NumberOfComponents="3"  format="ascii">-13.4502551158041 18.47288798697418 11.46921821353477  -15.49030348696927 19.58774177989798 15.29996553032029  -14.1865782561043 15.9981220025489 13.95022635125459  -12.26169817566932 19.25899127498568 14.49421128404827  44.29743265244123 13.92162334891997 4.607333050425998  41.98584728204781 14.68204664907035 6.691386292246431  44.40553042588667 12.17226179538978 7.96506997462925  46.73397186013556 15.56805876083587 7.441856611970222  -36.47128807043597 15.24431581721155 5.089882476143417  -40.25616974821011 12.85114906344804 1.681405671849105  -36.46945582266491 11.12205545379091 2.968117740419418  -38.35441298741345 11.86578092429473 5.762778417110733  -39.59052086674582 22.30770906013334 9.144076474604681  -40.93705548897152 27.11554754436478 7.80852177907618  -39.67775512726708 23.92568635767755 5.666058572710066  -42.8403694435614 23.48821645637879 9.397692157915323  -4.502001078615089 -10.18985626766426 -44.53976869424582  -1.992507738168812 -11.99685114093927 -48.36745023731091  -4.921437482430012 -8.467612181380289 -48.85778516318758  -0.8911122918776158 -9.731241529572248 -45.87728113805625  -23.24916951518965 -27.39161421204667 4.501183718528539  -24.76117211899019 -29.00920135966201 7.434905996454491  -24.13666224862917 -30.74954114501171 4.834797468699231  -19.83237169278237 -27.954038687828 7.460904595926491  19.45092373221039 -32.67264406788506 -11.51087850658323  21.94937186236836 -31.82692583885629 -9.235794716507385  23.58051704109759 -32.07122235265106 -12.30388422842247  20.4501697277467 -29.13433705210905 -12.3028776393961  -12.12819417379963 -1.668099983821583 13.5621392641343  -17.37523084039261 -2.858870566186134 15.38937707932549  -13.79993431886985 -4.345197648524941 16.16868394874961  -16.05545307663976 -0.1738667856337504 14.34278297046575  -7.546966145486252 31.66264765103017 -9.995304797630313  -7.789274601600392 34.56887538581714 -6.000340899860469  -8.476440563797636 35.06991029438982 -9.703451886103224  -10.53838150396493 32.14758615605703 -7.467592888901972  1.343739846519846 -8.881311455835618 -15.92702879424044  1.778178803506993 -5.582383821958615 -17.60167786060049  -0.1533286481670428 -10.87132702389268 -18.8638115569588  -2.200230685067313 -7.937697805408851 -17.68974389041188  29.04032228967548 3.481997025881689 0.654759333911396  31.89681427493989 4.179445274305974 -1.248308048240118  32.12386645923195 8.109071648126431 2.112682406620529  32.26407254491079 3.020749777902124 2.867374334507379  -40.48819658410424 -2.061020376739091 -22.01208945079492  -41.75678832116366 -2.80965516428321 -17.47405573930639  -37.15786031962433 -2.024346598776936 -17.26529668644464  -39.22767868951212 0.9868010008312819 -19.46504768305096  -3.963951080341485 39.33511536237727 30.20983865305912  -7.616511536336675 36.94652424852908 27.57540999977571  -4.732872662749226 34.39851427972971 31.16454435234064  -7.330449737511307 37.96051381197233 31.53953034385472  6.874888635135475 -45.38494818110549 -19.31127468310964  5.386602325766279 -41.56605662997121 -15.62625803106587  6.884654327612113 -46.58522908994644 -16.24808523833484  9.687753902398537 -41.99094897245635 -16.45036675728574  -6.936652347659644 -32.5178580476536 -7.642589352019795  -4.865380802037186 -30.40547630163233 -5.200047706169212  -6.613585690529559 -28.20713132145 -7.892329513822384  -9.509940333728155 -30.11097088238114 -6.124888702106988  18.53019841864634 4.176756179707449 32.06759259142382  20.82000681630255 4.803461399588286 28.72558901354115  16.44159038399966 3.233319712593005 29.66660826391595  18.16616892292149 6.043342916449927 26.52035762225596  30.14545847430278 22.53414843386546 -13.88642643128227  30.53164125388671 22.49503822818114 -9.300229475515144  27.38838814600565 23.11485305238439 -11.33978935815411  27.79677996865006 20.54927366304142 -13.14460041155716  44.08195648214612 6.328353135892151 2.639675748624378  42.85661143614901 3.886096748100281 4.872295566073395  41.64143717429484 7.662129799340926 5.893750417112994  39.54667642559326 7.559418574095622 3.384844493334143  28.04983836536728 -29.08741121404673 -21.11221910868349  24.91211201842984 -27.64424249232789 -19.45415904585358  27.65317405260927 -27.19984332622881 -17.37435847843829  26.36209224818977 -24.22245350938074 -21.04375322998246  25.3911830539182 -27.8819026051154 3.936394438058091  22.25811493135824 -28.5406978813903 4.785592457146438  24.63510098386846 -30.58022295436903 5.863339707261287  23.33960492327448 -26.35785327240183 8.17373552876435  -5.363148355007847 21.29401887579918 -6.546496721936331  -4.503306808273889 23.52741004756382 -9.596948865034438  -4.192893339447887 18.51224183707934 -8.29488278041244  -7.623850505827761 21.13704044847358 -10.89227250759044  9.46127376109208 12.84059531389606 26.86921305464991  9.010322993302943 14.57268287308483 24.0987466501636  6.245896135793675 16.0378422885289 25.14288267715934  8.472000928365114 15.16777120880708 29.27032107167231  -30.15988069678115 -18.26790007526546 -28.36453020824817  -27.95695758356236 -18.18055322396212 -31.6172781347604  -29.7351118939307 -13.75691343594875 -29.4201381761421  -25.53490749835925 -17.76879210618165 -28.29932800793192  27.56889609203466 -36.18700870609767 4.963082669528931  29.19894360864894 -36.022370522823 8.015442780037958  29.25134432185536 -32.05661563874628 4.699206247456083  27.35630157244154 -31.87423841765362 7.624200303965875  -12.37158365376552 -17.3672102922096 -4.373603655012578  -10.36127149319574 -20.27338408723203 -6.492335513535228  -9.08309143841154 -18.4809341155376 -2.155121292442036  -12.46614788470777 -22.36339128612215 -2.437164232986713  -11.60532901493671 -9.414009170968207 -24.41413076020232  -7.868451163641027 -7.970274117381787 -24.32997016987783  -8.660663236707041 -9.675191540820565 -29.04399608405578  -12.11446047281288 -8.318493086644171 -27.9786196371724  -42.07468818152277 0.09150619025215079 20.44145285694167  -39.20268525050957 0.03971798136545002 17.39806289712945  -41.94571776388189 -1.917818605967915 17.78071897912932  -41.22389473295012 2.577925798222926 18.38539052451253  -3.281203701410453 37.20487653768409 32.8584259787512  -1.201460594881784 33.89315965517976 31.16921096068807  -0.9734974889212367 36.32281826279691 28.48995805979694  -26.50223964295173 -13.23245380441143 -30.84389926819297  -25.43073862695238 -15.64894093382867 -33.24516811394372  -23.72274527326672 -10.78916355304353 -34.56443791503879  -22.58872069364541 -11.43784014320703 -31.46879014208113  -9.349592891301661 -16.45777591382827 7.448319241054624  -8.852264211138536 -16.86870552107817 10.5693036034819  -13.09411644818448 -15.20636423406248 8.392271914510795  -12.62857855952916 -18.56349713693331 10.52079010667312  29.35120658435766 27.68197620149617 23.09802542632  25.71163550554963 28.47281903130252 23.71353842789194  27.91384149786527 24.67905440059387 26.5303386055114  28.84833061054117 28.60515901494948 28.29580294576377  -39.28208681120975 -19.22940248490774 -1.679476099311895  -39.39928188996981 -15.4811096015938 -0.6434602238287226  -42.57853914580687 -17.81900389115063 0.5637054200956837  -38.72842138482095 -17.04112944914905 2.116231837486415  7.390756840210976 5.439334010164863 28.69611814256692  9.000210609109685 6.22896275487782 32.19754194036646  3.555125125134099 4.121981618448062 32.17567217292359  8.569362175933438 2.760193345020871 29.95575339126301  -7.257569379243229 7.636329808730082 12.05680854679712  -9.98856118067898 8.198610027796779 13.80099578845561  -7.172619930654422 10.93624902239463 12.42416442672451  -10.39757947120212 7.484062468918986 10.23343540279933  8.410039007966123 12.39691235211374 21.69361676113999  6.527317778581368 16.57766572051906 20.1582733951657  9.071138135108443 14.72407652778504 19.60569651515694  4.379977544740851 13.38118501121572 19.81394577543659  23.92267215511908 -15.61883250644673 -21.20065320803862  23.98903831037321 -12.56707981499919 -20.45829252390994  27.7542271325792 -12.23774019273618 -23.07094534385681  25.62371972861481 -13.40475178240447 -25.61334430869772  26.64831490453502 -8.086379613220842 41.16349277156919  24.39649941170364 -10.48331072210495 38.45824266944042  25.30932273520125 -5.418174167477862 38.6429030026198  26.47388344749777 -8.321254813649897 36.47049625639595  14.28057681062594 29.50241536723943 -25.90886589170685  12.02365686512373 31.40833047600896 -22.57255047537416  16.15747031329457 32.19001196382297 -24.30292624261948  13.57313815758524 34.30275530311876 -25.78025143839259  34.32463564784634 -17.1251427530531 31.73307457345978  35.80038927430503 -17.53305370163497 29.54366258778661  33.36498754020025 -19.9876676017658 30.86644719307842  32.50240870363695 -16.94722557097131 27.47103092258764  0.117183221183554 -18.92227138726608 9.399462732071138  -2.163907338156873 -21.55924005009356 10.14496322449741  1.764250578000774 -22.75376677643856 7.720450695416663  1.256733398026054 -21.56912412182061 12.19582261182391  -12.32994157215524 44.29720032201548 -1.485133865866252  -15.09888461579943 43.98030044462701 -3.430050636809721  -16.07373385280412 41.81807623191919 -0.9959948083162602  -14.52091628199286 44.08098775567292 1.503944487263577  48.63545120390911 9.583218839924896 4.800203077379545  44.56718641632638 9.122187048197189 5.856262722080173  46.77214894002494 7.206974886137735 0.8365062977025144  46.49430373513695 6.490195891592734 5.573416512140159  16.78450099470229 14.18003640223726 25.20823482203591  15.0478885310356 15.68090092563201 28.62604946143512  17.37809350759431 13.20051118093561 28.61949048201372  17.84452576088628 17.30768125886227 27.77939058917977  38.20435140156723 6.336583617054414 -8.930146635066656  36.96767549590255 3.756830294452819 -12.87798223337812  37.06518716637449 3.371006956448405 -9.111899882152349  3
[...]
<PointData  Scalars="f_17"> 
<DataArray  type="Float64"  Name="f_17"  format="ascii">-7.3240573024467636e+01  1.0110432864290632e+02  -1.3332643790762924e+02  -4.3144144301285849e+01  2.0595825118507464e+03  1.8350431356001382e+03  2.0309989033441566e+03  2.4348704360167508e+03  1.2727108954295354e+03  1.5575124463779043e+03  1.1212612722278793e+03  1.3396263888354135e+03  1.9676305081014400e+03  2.4199039525169169e+03  2.0553815457479468e+03  2.3973912585204480e+03  -4.5482349569790472e+01  1.0052707414720746e+02  4.8063217784539340e+01  -4.3426370033703797e+01  9.1046261028903029e+02  1.1397409087850224e+03  1.2284973686702397e+03  7.6882705962129307e+02  1.1360618701302074e+03  1.1885685726875383e+03  1.3276968187606303e+03  9.0539274202137221e+02  -5.5064987392200101e+02  -3.1718437267175437e+02  -4.4104673839387908e+02  -3.9721033381614825e+02  6.1001132633247846e+02  8.5505015348551615e+02  9.3582466746043644e+02  7.1257641579165124e+02  -6.4652099355674591e+02  -6.9333305991601230e+02  -5.6803730252915432e+02  -6.4787495125011662e+02  3.1744043349167805e+02  5.5241296347590810e+02  6.4113853831876304e+02  5.8066861746314089e+02  1.5059007216639839e+03  1.5920202017898475e+03  1.1018453634284845e+03  1.3361096236156795e+03  1.5941740473919276e+03  1.3544144481122989e+03  1.1385773537538232e+03  1.5272756325669761e+03  2.0887463404640357e+03  1.5830836878240345e+03  2.2023339493351655e+03  1.7244906563678810e+03  6.6258944218614215e+02  4.4370446148619845e+02  3.0804478692815775e+02  5.1041218003207956e+02  3.2697641085651775e+01  8.6150697891444963e+01  -1.2649749857682021e+02  -7.2292919597282733e+01  1.1182966172250019e+03  1.1149496146705922e+03  9.2156127016523021e+02  8.1525567289194009e+02  1.8240481113198405e+03  1.6558116284405141e+03  1.5842974054933177e+03  1.3427619954126426e+03  1.4836837407835408e+03  1.1332709866956650e+03  1.2681421181120945e+03  1.0135497014620851e+03  1.0827042243262040e+03  9.3484069654850748e+02  1.2483844595493254e+03  8.6025033784926950e+02  -1.7220221100774782e+02  -3.8158723020822890e+01  -3.3092743335463831e+02  -1.2043110216595939e+02  -2.1982405743028113e+02  -2.1689490310347469e+02  -1.9370433538568724e+02  -1.0651784120301494e+02  1.0759730206820022e+03  9.6358055105698656e+02  8.6670744335890799e+02  7.0616260217701620e+02  1.9501425079629719e+03  2.0722329428407402e+03  1.6976012768397534e+03  1.5559931643028397e+03  -2.1547668670485973e+02  -1.2571675246822791e+02  -2.6030317456186026e+02  4.8283992631629232e+01  -3.5211624558796387e+02  -4.8329761271860229e+02  -3.4713268222302742e+02  -3.0428463944312500e+02  1.6949765815237249e+03  1.3408993657334715e+03  1.6472952889617036e+03  1.5805095241730912e+03  1.4288275618932169e+03  1.0640840343745081e+03  1.2346272409958510e+03  6.3023080698694889e+02  7.0093919886305605e+02  4.4480297654001123e+02  3.2900355976361647e+02  -3.2065539946165609e+02  -2.9294174956441054e+02  -2.5597854306253825e+02  -1.0500299524301809e+02  1.5520158767558262e+03  1.3514131728991706e+03  1.2906146202785199e+03  1.6797771042313962e+03  1.7257784929142128e+03  1.5641112312631249e+03  2.0167084091163151e+03  1.5652476595624826e+03  -4.0984051646820842e+02  -2.9060233585794174e+02  -4.0882215041507408e+02  -3.8955490897770665e+02  -6.1526861546759562e+02  -5.2344411104020332e+02  -5.3154667410618924e+02  -5.6304561144108800e+02  -3.4584460169974841e+02  -2.4283545912391850e+02  -2.7508085855574063e+02  -4.1043769439884579e+02  3.9393624781725481e+02  2.7754706226382467e+02  5.5601840503754363e+02  4.8638470541998601e+02  8.1768571527194592e+02  6.4821242428295977e+02  6.0605604949555266e+02  6.8438074340397770e+02  8.0797659011454607e+02  8.3084540422130362e+02  1.0801915967589407e+03  1.1857114164153475e+03  1.5041842012433103e+03  1.6196195068839775e+03  1.5445956969094741e+03  1.2473592687659325e+03  -3.0666780338228375e+02  -1.5347199904946956e+02  -1.0275208322981983e+02  -1.4147837235020398e+02  1.9942652791534670e+03  2.0603318333174038e+03  1.8518233989691932e+03  2.0492272552396057e+03  2.4630454002190954e+03  1.9526927066110022e+03  2.1577228828582142e+03  2.1283672551299987e+03  5.4625764067135833e+01  1.0748246530589317e+02  1.1358471597720990e+02  2.8675671157614920e+02  1.1928136006061920e+03  1.0587397984169199e+03  1.0427218865060167e+03  9.1275893636841488e+02  -2.2508120677318479e+02  -1.2667564863733729e+02  -3.0517270041485710e+02  -2.9935495672583824e+02  -2.3543320738058344e+02  -2.3139162276387719e+02  -1.9392123659447520e+02  -4.5177946897330003e+01  1.1962575124392815e+03  1.0298963869259728e+03  8.8168969745048184e+02  9.0711128764974990e+02  1.5630374026457091e+03  1.6221874242912393e+03  1.7690576130943607e+03  1.4287526419274964e+03  6.9590026065942368e+02  9.6518004166140599e+02  6.2760917735480473e+02  6.8676529282013485e+02  4.2434271798048292e+02  6.4682505005120584e+02  3.2355539307787353e+02  5.3061742236399368e+02  2.2960311766875671e+02  2.4627922112510586e+02  3.3982323834107984e+02  -2.8065774705610821e+01  1.3220109772099102e+03  1.3989412571874834e+03  8.7671995787770993e+02  1.0672971236220822e+03  2.6431489988960641e+02  2.5153102028763487e+02  4.4514383551727917e+02  1.6366722044443421e+02  7.3991208539467982e+02  4.6943991420917638e+02  5.5137406801179225e+02  4.3057397318981134e+02  7.0532828150592763e+02  5.8170467667423588e+02  4.0882024444295189e+02  5.8871084771603444e+02  9.1001547781623844e+02  6.4226945815822637e+02  7.7826779507440006e+02  8.4649092562693374e+02  1.2777669489463444e+03  9.2353559151962031e+02  1.3550578677050505e+03  1.2031588812302746e+03  5.1104239207153302e+02  8.8106025120035531e+02  9.2174036219976097e+02  1.3630940707887623e+02  3.4131150942607991e+02  3.8370214426427833e+02  2.4978006850793022e+02  1.2500485014846374e+03  1.4464968603127074e+03  1.0058544939473343e+03  1.1423375307977969e+03  1.3941142863231730e+03  1.1834052871573790e+03  1.5281954659116050e+03  1.2542292694652219e+03  1.6746576928421287e+03  1.9410486948338457e+03  2.0295348455272720e+03  1.8089285980100562e+03  -2.0220811620057847e+02  7.0233299043483825e+01  -7.0852842758915372e+01  -1.5516866853835546e+02  9.2140245313196885e+01  1.8463667640895244e+02  7.4837060175484922e+01  3.6294966752809808e+02  7.2812947093295520e+02  9.1416770040574170e+02  5.2119717642049886e+02  7.3406683902002283e+02  -6.2023778772928847e+02  -6.1454868680989694e+02  -5.9114490659025057e+02  -5.2448485402550091e+02  4.6420506439481011e+02  7.3958511061737613e+02  7.3231931965537592e+02  7.3855931120360390e+02  4.8909161679960073e+02  5.7570059013649791e+02  7.2302548260313802e+02  7.1494306729820426e+02  2.3764967562100401e+03  2.4360943934622924e+03  2.0783908384367537e+03  1.9084628795351739e+03  1.1634866860369104e+03  1.2878785960972807e+03  1.3672140227038979e+03  9.4587770617992112e+02  3.2439164392710228e+02  2.1501105938678631e+02  3.3056809789224280e+02  2.1642729678604388e+02  2.1848851557056432e+02  5.0835594946170363e+02  2.7516366692328779e+02  4.1629808601726722e+02  8.9333957981548485e+02  8.6676676885507231e+02  5.9217904074378396e+02  5.7101524867849889e+02  1.5109546396470716e+03  1.8411550883333969e+03  1.3757431415986721e+03  1.4819094000654813e+03  -6.0485310851499139e+02  3.8294138875060099e+02  3.9510192772499772e+02  2.7559436577679742e+02  6.0494991081296246e+02  -7.2025197642784690e+01  8.6312038322117800e+01  -8.4260094266733532e+01  8.1056510795417751e+01  -9.1327151019734529e+01  -3.0301930691920461e+01  1.3535986180545893e+02  -9.0677113943329886e+00  1.1464193458218001e+03  1.1765480812540450e+03  1.0319879744245527e+03  1.4990082659091677e+03  1.2430543515967286e+03  1.5324823398271167e+03  1.5350895608980252e+03  1.7379810126166310e+03  -3.6586625042507109e+02  -4.8063289347577455e+02  -4.7284876879599165e+02  9.9733958844400217e+02  1.0614557901610237e+03  1.3120336349632885e+03  9.1997694130747925e+02  -1.0129409254112308e+02  4.6259105881017668e+01  9.0088330871583295e+01  -1.3730926285372107e+02  6.7823552587326731e+02  4.8417955760914180e+02  7.7803579949226707e+02  6.3057250524583355e+02  4.5717217370239979e+02  5.8326634150774601e+02  7.3826688208521716e+02  5.5203492167059994e+02  2.2801223504213644e+03  2.2263272497719754e+03  2.1168049636426149e+03  2.1474599538162629e+03  -4.0581618827546561e+02  -2.9344367912176943e+02  -1.7776886880594114e+02  -2.8090973512216090e+02  1.8415044740269186e+03  2.2967008983507999e+03  1.9362961034160633e+03  1.7536236349638473e+03  -1.5726574529442721e+02  -5.7559473973739159e+01  6.4519940744742456e+01  -2.0331026478219624e+02  2.1684439148984055e+02  1.9705868711872014e+02  2.7550638131322455e+02  4.3784134420759131e+02  7.0524004634425478e+02  4.0925752560800271e+02  6.8596196921752414e+02  5.4931051751791858e+02  -7.0033849495156164e+02  -6.8542242581569758e+02  -7.1755974604553319e+02  -7.6598498624525337e+02  2.2881391224624454e+03  2.2576794947537687e+03  1.6782610659754007e+03  1.9615949979547854e+03  4.5830690625454736e+02  6.3699949940730596e+02  3.2394443432814364e+02  1.5079263133303882e+03  9.4926416403295093e+02  1.1844440191825654e+03  1.3506190301710469e+03  5.5295634533739383e+02  7.9538821769920162e+02  9.1153518425495452e+02  5.0489151494410925e+02  1.1082338450996224e+02  1.3180588887136582e+02  2.4737207632575982e+02  9.6234856762906329e+00  6.0404651158363754e+02  9.3584220218428891e+02  5.4449549764967992e+02  3.7172757570309500e+02  6.3122556874678605e+02  3.9208695667679524e+02  4.7745658168650124e+02  3.1859294492610064e+02  3.6807002232265614e+02  3.9021359047601720e+02  1.6782362433013270e+02  1.1440667754009705e+03  1.4044316678097662e+03  1.5376603289373543e+03  1.0351260035759487e+03  4.4208384714506059e+02  6.1611433490471450e+02  2.5778424899109524e+02  4.1481280329344798e+02  1.4201803679011020e+03  1.1658795318697000e+03  1.2447226580355882e+03  1.4972743514557369e+03  1.6400839903603428e+03  1.3110180279711903e+03  1.2722505372043927e+03  1.5398204155866010e+03  2.0258336689309870e+03  2.1125139406456824e+03  1.7682389243806861e+03  2.1424020345821573e+03  -6.9556638088950820e+02  -6.2101906348014006e+02  -6.3469853474873344e+02  -6.6491416865042038e+02  -4.7620651041409468e+02  -4.2996937812439995e+02  -5.4226792621075037e+02  -3.6844458164002788e+02  7.6730975663392633e+02  9.2901938546186329e+02  9.5054635981103525e+02  8.6192409889353485e+02  8.9064116700454917e+02  1.2482287799763737e+03  1.0727788537494318e+03  1.3791793978318874e+03  1.4623209538249446e+03  1.1857013433088466e+03  1.3043471708910281e+03  5.0845015507410847e+02  7.2046040557298340e+02  7.7462673960371706e+02  4.6867097228955242e+02  1.0195705117728825e+03  1.2505912077513731e+03  1.3685736880091943e+03  1.2194736643631857e+03  -7.2211547185231370e+02  -6.2858755580382206e+02  -6.4516413416126613e+02  -6.5721891140617811e+02  1.4624963080465448e+03  1.5055802326927387e+03  1.8438838754207052e+03  1.6432103552360466e+03  1.9808015515452686e+02  5.4067213199125227e+01  2.5084567808168893e+02  2.2344138423235995e+02  1.2661439400659110e+03  9.6710616349677605e+02  1.2560565699884703e+03  9.7144833293894135e+02  3.6268269245916321e+02  2.6875517416778331e+02  1.4419465452480080e+02  1.5433294604157524e+02  1.4505494561453197e+03  1.6798376634253473e+03  1.2968765863599758e+03  1.3010120172673974e+03  1.5762354346460654e+03  1.2537062577771628e+03  1.3572888620618892e+03  1.2951782845191685e+03  -3.1615945797323769e+02  -5.0450859602389602e+02  -4.5225043396185208e+02  -4.3254657481223313e+02  1.5795749198513178e+02  1.2283262862387205e+02  2.9584116526492977e+02  2.9343503300271794e+02  -1.1581076569732372e+02  -1.0245343813265221e-02  -3.2006060073712439e+02  -1.7351284000078175e+02  1.8137028778684130e+03  2.0545300627676702e+03  2.0268810255460940e+03  2.0818526536581139e+03  2.3085095912543493e+03  1.7325808701899382e+03  2.2333598569044093e+03  1.8254118819409043e+03  1.8129615596387616e+03  2.0365813516736064e+03  2.3280335547807863e+03  2.3569870566243612e+03  -5.8470914571938431e+02  -6.4276692112333535e+02  -6.6824497009408594e+02  -5.9831754220859818e+02  1.3889770161280583e+03  1.7091776431975150e+03  1.4740504944534948e+03  1.8507735836882880e+03  1.7990062930072895e+02  1.0861883709392560e+01  6.3974502086558488e+01  1.0816969723474018e+02  -4.1187081223892756e+02  -4.8079680878184593e+02  -2.7537964147130327e+02  -2.8349202787687813e+02  1.2843898189508954e+02  3.0009421239151802e+01  1.9365166966835542e+02  6.5674715528144546e+01  -7.3633981143906556e+02  -7.8568677143158072e+02  -7.6795653787594983e+02  -8.0530032745655683e+02  -9.2175253711481062e+01  -9.7755611911244202e+01  4.5213127690008676e+01  -1.8436102832533930e+02  1.0126938790161204e+03  1.1218226216399887e+03  7.7785108673576292e+02  9.2648559527210955e+02  1.0896253613441189e+02  4.1431545071575158e+02  2.0481692748986572e+02  1.9034123405319255e+02  -6.7829046776447640e+01  -2.1530474925004765e+02  -1.9824468436940387e+02  2.5322144329316146e+01  -5.7523302475948890e+02  -5.8020799984336986e+02  -5.0655723165878851e+02  -5.8144993555687734e+02  1.8975402050121054e+03  1.6756824537763125e+03  1.3254594032722459e+03  1.4101508961454524e+03  8.0937825523325330e+02  8.6396138780903993e+02  9.9029229739479035e+02  6.4167109797905221e+02  1.6795397956756167e+03  1.7116728667924317e+03  1.6867673901713886e+03  1.3429296077676177e+03  1.0533803593401979e+03  8.6688048788457183e+02  7.4861938684154438e+02  1.1063821282326130e+03  -6.6840749888248911e+02  -6.0697114138092547e+02  -6.1292208441241007e+02  -6.4268692113474435e+02  5.6342107860081296e+02  8.7091745328940704e+02  5.8495159974307558e+02  5.0771298928791083e+02  2.4690163733403019e+03  2.0818165168355331e+03  2.4476888578708904e+03  2.3994023866747580e+03  4.6481430315066592e+02  5.9972670950466488e+02  5.5895815101691767e+02  3.5377921207955109e+02  2.4410332538634675e+03  2.0563718757555257e+03  2.4694557121246912e+03  2.4102797056884788e+03  4.8684970958868547e+02  1.8010565880068125e+02  3.6839750669766778e+02  3.6100895952984530e+02  3.4164084175725014e+02  5.7078499565281243e+02  5.2022162444984860e+02  6.4882322238520874e+02  2.0855862852273003e+03  2.4691209251854766e+03  2.4965089650358263e+03  1.9591913356062487e+03  8.7400080102166339e+02  7.8280748505897316e+02  8.5792399931449643e+02  1.1209202389400236e+03  7.4147762479412665e+02  9.9837886465848965e+02  1.1109746057333130e+03  8.0997255113979591e+01  1.4433717993404952e+02  3.3029687804703553e+02  1.8890230801941510e+02  5.3744250719100330e+02  5.0152976646883121e+02  2.7077771397483616e+02  4.2873704262622414e+02  -1.9633870758465417e+02  -1.9421077196339738e+02  -1.7268792167107071e+02  -2.6202641947701224e+01  4.9390271689054566e+02  3.8762530636731213e+02  8.0091280270786581e+02  5.8830834797410796e+02  -3.2214082944781040e+02  -2.6418668412032127e+02  -4.2382764955498197e+02  -2.2760851983291491e+02  1.9856080728781260e+03  1.7557647009668597e+03  1.1216236833100082e+02  1.9322428752899259e+02  3.6171763027810698e+02  3.9395931777392707e+02  5.4421598590899373e+02  6.0168253386953643e+02  5.6301868017961817e+02  7.9969079053112580e+02  6.3677745958694106e+02  6.8789179486776698e+02  4.2563213527164896e+02  1.6366554339741449e+03  1.6295461078438309e+03  2.0114127081324934e+03  2.0178250255716098e+03  -2.9104904759470509e+02  -3.8360000398027097e+02  -2.4749136335339674e+02  -4.3612863584478765e+02  -1.8517091986403375e+02  -2.5528967933043802e+02  -1.4141896489158387e+02  -3.4852477851239183e+02  8.4678566879824052e+02  5.9311526201729043e+02  3.7253977421934940e+02  6.3047174626268702e+02  -2.8219637300986125e+02  -1.8036452956772243e+02  -6.3536337641303327e+01  -1.5631382128630992e+02  5.5908691711475782e+01  2.8914878524899046e+02  1.0472673565534745e+02  1.0934325495689118e+03  1.4909791350916321e+03  1.1558692255213707e+03  1.1945144450811601e+03  2.4026663943317021e+03  2.4128193724615098e+03  2.4562224245921998e+03  2.0477094742318770e+03  2.3146580674868464e+03  2.2615765264286465e+03  1.9283370958888534e+03  1.8990184234761734e+03  -5.3140177249105204e+02  -5.1050610178719870e+02  -3.9521576818244046e+02  -4.7642422847737600e+02  -6.8033985273515577e+02  -6.7015798118026112e+02  1.9909481615219220e+03  1.6089468948243173e+03  1.5697861075315413e+03  1.4526249788314276e+03  -2.6257185613361798e+02  -1.7177512234814810e+02  -1.9313358577517732e+02  -1.7918694365157899e+02  1.8219576568996497e+03  1.5401694586637200e+03  1.6896431443169963e+03  1.5642525855821432e+03  1.5554802281394591e+03  6.1940120979278981e+02  8.0548898969948834e+02  6.5204025467405813e+02  6.3403068699430253e+02  -5.5453235772434800e+02  -5.6151153898656753e+02  -6.4972517409926195e+02  -5.4734869414485888e+02  2.4639603474814235e+03  1.9308165510112926e+03  2.0458596824489707e+03  2.0468623493382463e+03  3.6362531967716581e+02  4.8772540116643523e+02  3.8007273429601713e+02  2.0306344606980497e+02  -5.2458409824483829e+02  -6.2548199352258109e+02  -6.4223396535655399e+02  -5.7229823409391861e+02  6.0871792657709420e+02  7.4779159867750275e+02  4.6387814589988153e+02  5.9807961584950806e+02  -5.0365491279600116e+02  -4.8160724200751520e+02  -5.6917560957497381e+02  -5.3497547790860176e+02  -7.7616650563378812e+02  -8.0031262546251685e+02  -8.1128212402377721e+02  -7.0612396867094859e+01  1.6179924763320221e+02  8.3054664225245460e+01  -1.7869538205635641e+02  1.8339765686954604e+03  2.1533345189463275e+03  2.2537704976460154e+03  2.1409640810531605e+03  4.9153611239658949e+02  2.4051656797739503e+02  5.6650444695046212e+02  2.3047630115293074e+02  1.2711339472031498e+03  9.6020299163251377e+02  1.0368102084691889e+03  8.3806402485347553e+02  1.8863946617781253e+03  1.9043529319146419e+03  1.4812363290402516e+03  1.7433724754119366e+03  -4.9837034813630885e+02  -6.2711267448228602e+02  -5.6542723589969808e+02  -5.0192614033224311e+02  -6.0974479824236005e+02  -5.4375827805263395e+02  -6.3170962415348026e+02  9.2195641381146277e+02  7.2011992409931338e+02  1.0477751970029726e+03  7.2344541996431576e+02  1.7817929037292340e+03  2.4622314333790500e+03  2.4483742671660279e+03  2.0536767671600828e+03  4.0454769205325522e+02  5.6748192104185409e+02  3.1473762967405833e+02  6.4014570912090403e+02  9.0523288170792648e+02  -7.4136360838846622e+02  -7.4853336769982411e+02  -7.7561446639782923e+02  -7.4487881423146598e+02  9.8736242501715807e+01  -9.8278807127957208e+01  -1.3065345405846020e+02  6.8914878656572157e+01  -4.0019528638990636e+02  -3.0722311109331963e+02  -2.1143216263805473e+02  -2.8797010189484467e+02  4.9614103248543523e+02  3.1069371415325247e+02  3.1596718077335277e+02  5.4783579394717106e+02  4.2322360141751255e+02  2.4724207161713707e+02  2.9858963962972541e+02  3.8839310965912830e+02  -1.9095504976196679e+02  -1.3443045014791753e+02  -2.4272529499342139e+02  -2.3178672337502431e+02  9.1731582532881509e+02  6.3688209896394699e+02  6.3230351516628969e+02  9.8375197355441969e+02  1.1376070228535079e+03  1.1402000292690025e+03  1.3001174277741034e+03  9.8881573301004357e+02  -7.7213483842409050e+02  -7.4994117287661857e+02  -8.1031560970218857e+02  -7.2866915287597715e+02  1.5790866425903171e+03  1.6218972032594584e+03  1.4961848640513992e+03  1.2503621913346444e+03  1.4622475168075746e+03  1.8386848791433911e+03  1.3579753857150549e+03  1.7101551277458320e+03  2.6644861977603006e+02  2.3874030610862908e+02  1.7132527367534672e+02  3.3055490738657610e+01  -4.5436834743116032e+02  -3.9004701530899945e+02  -5.1859058835094515e+02  -4.2527070474095092e+02  1.6409130964044466e+03  1.2118018590537288e+03  1.6547388066154476e+03  1.4269473110318791e+03  3.3424398198341045e+01  -1.0815353901158555e+02  1.5574487466460432e+01  -3.0061398217011075e+01  1.7390921628304195e+03  1.6668861465087332e+03  2.0679105503017377e+03  1.8873936313960812e+03  2.3800467780647978e+02  1.7106401664941276e+02  2.4001753466963265e+02  5.0655039464191098e+00  1.1862906779727680e+03  1.0404450526677492e+03  9.8006643107020295e+02  8.1536787134346969e+02  1.1933563860118250e+03 