<?xml version="1.0"?>
<VTKFile type="UnstructuredGrid"  version="0.1"  >
<UnstructuredGrid>
<Piece  NumberOfPoints="2085" NumberOfCells="4016">
<Points>
<DataArray  type="Float64"  NumberOfComponents="3"  format="ascii">-49.9758141145994 1.554993113491838 0  -49.9758141145994 -1.554993113491825 0  -49.78246739845093 -4.658963374203596 0  -49.39652198703784 -7.744909010704222 0  -48.81947102818035 -10.80089109882416 0  -48.05354701993623 -13.81508663754151 0  -47.10171317349946 -16.77583428987624 0  -45.96765194911182 -19.6716794983376 0  -44.65575080933958 -22.49141880038179 0  -43.17108524483318 -25.22414317243198 0  -41.51939913823988 -27.85928023477141 0  -39.70708254223767 -30.38663515402659 0  -37.74114695766287 -32.79643008499698 0  -35.62919820737534 -35.07934199923884 0  -33.3794070108077 -37.22653875405075 0  -31.00047737303876 -39.22971326231829 0  -28.50161291068912 -41.08111563102004 0  -25.89248124491628 -42.77358314405819 0  -23.18317659926636 -44.30056797341574 0  -20.38418074708446 -45.65616251143093 0  -17.50632245956955 -46.83512222618374 0  -14.5607356113626 -47.83288595157099 0  -11.55881610574851 -48.64559353357187 0  -8.512177786119937 -49.27010076443407 0  -5.432607504273719 -49.70399154700263 0  -2.332019519370897 -49.94558724213054 0  0.7775905960175384 -49.99395316300748 0  3.884192364450322 -49.84890219128146 0  6.975766947196134 -49.51099550098348 0  10.04035364278592 -48.98154038745408 0  13.066096160643 -48.26258520967179 0  16.04128849076837 -47.35691146555001 0  18.95442019201893 -46.2680230308621 0  21.79422092376857 -45.00013260342649 0  24.5497040486661 -43.55814540499752 0  27.21020913780137 -41.94764020391506 0  29.76544321383328 -40.1748477319338 0  32.20552057251988 -38.24662657873239 0  34.52100102858731 -36.17043665736252 0  36.70292643797302 -33.95431034329429 0  38.74285535514448 -31.60682139871633 0  40.63289569141249 -29.13705180231507 0  42.36573524788886 -26.55455661286377 0  43.93467000496342 -23.8693270025564 0  45.33363005885363 -21.09175160310311 0  46.55720310488297 -18.23257631413277 0  47.60065537663649 -15.30286272939437 0  48.4599499599833 -12.3139453416001 0  49.13176241111319 -9.277387691474678 0  49.61349361816382 -6.204937630662966 0  49.90327985667972 -3.10848187157401 0  50 0 0  49.90327985667972 3.108481871574026 0  49.61349361816382 6.204937630662967 0  49.13176241111319 9.277387691474663 0  48.45994995998331 12.31394534160007 0  47.6006553766365 15.30286272939436 0  46.55720310488298 18.23257631413276 0  45.33363005885363 21.09175160310311 0  43.93467000496344 23.86932700255635 0  42.36573524788888 26.55455661286375 0  40.63289569141251 29.13705180231505 0  38.74285535514449 31.60682139871632 0  36.70292643797301 33.9543103432943 0  34.52100102858734 36.17043665736249 0  32.20552057251989 38.24662657873238 0  29.7654432138333 40.17484773193378 0  27.21020913780137 41.94764020391506 0  24.54970404866611 43.55814540499752 0  21.79422092376856 45.0001326034265 0  18.95442019201897 46.26802303086208 0  16.04128849076839 47.35691146555001 0  13.06609616064304 48.26258520967178 0  10.04035364278593 48.98154038745408 0  6.975766947196156 49.51099550098348 0  3.884192364450312 49.84890219128146 0  0.7775905960175397 49.99395316300748 0  -2.332019519370885 49.94558724213054 0  -5.432607504273719 49.70399154700263 0  -8.512177786119924 49.27010076443407 0  -11.55881610574848 48.64559353357188 0  -14.5607356113626 47.83288595157099 0  -17.50632245956952 46.83512222618376 0  -20.38418074708444 45.65616251143094 0  -23.18317659926637 44.30056797341574 0  -25.89248124491627 42.77358314405819 0  -28.50161291068913 41.08111563102004 0  -31.00047737303875 39.22971326231831 0  -33.37940701080768 37.22653875405076 0  -35.62919820737535 35.07934199923884 0  -37.74114695766284 32.79643008499701 0  -39.70708254223766 30.3866351540266 0  -41.51939913823986 27.85928023477144 0  -43.17108524483317 25.22414317243199 0  -44.65575080933957 22.4914188003818 0  -45.96765194911181 19.67167949833764 0  -47.10171317349945 16.77583428987625 0  -48.05354701993623 13.81508663754152 0  -48.81947102818035 10.80089109882417 0  -49.39652198703784 7.744909010704235 0  -49.78246739845093 4.658963374203585 0  -3.552713678800501e-15 -7.105427357601002e-15 0  15.50774005499525 19.62434927641233 0  -16.11055324615096 19.13256805133237 0  24.03840131035424 -6.910886236821534 0  -16.11055324615102 -19.13256805133233 0  7.505355490825568 -24.65554095622107 0  -27.67430201032951 4.263256414560601e-14 0  -0.4763887254941022 30.62865697156847 0  31.293568623739 8.996700317573751 0  23.93270207116142 -23.56335486512227 0  -6.856127009236127 -32.81279126947057 0  -1.24766108662344 15.29862755033471 0  -31.05479544708439 15.10403093229385 0  -30.85928428563783 -16.76558279817564 0  14.33778329772927 4.609372033071738 0  -13.83715100516475 4.697664463185733 0  14.84722038944244 33.25456712506683 0  -14.28761710610159 33.03238197457102 0  36.68581598526228 -3.070877470670984 0  28.8110135216873 22.34682735819171 0  -2.511303263965649 -14.23457935107924 0  10.96556473485666 -11.30507607763678 0  -19.66377030679462 -31.50659431015275 0  -25.86987572676317 27.10595502528559 0  15.33482852833589 -34.34670404768519 0  33.84680149200405 -15.51864022710708 0  -17.59282976409926 -6.967601540673619 0  -38.21218000358273 -4.779026356795243 0  4.113230032851535 -35.40432300489375 0  -36.70658762117849 5.908764442651467 0  -5.563651239418317 39.48840515588054 0  5.976984419759304 38.99346436638782 0  -23.00538424244015 8.975285446553755 0  8.186341542959179 26.10066797496826 0  -7.115223044301609 23.27824823855082 0  -7.046359489357163 -22.97114164619265 0  23.4963278287561 14.45263386626295 0  -29.16840458976714 -26.98403527395728 0  -7.815745357195858 -5.959940070909473 0  5.295483673014896 8.132056294580215 0  40.16742545134227 5.723354807019335 0  37.46266266541339 16.03200211148896 0  24.88933285163066 31.49633405029591 0  19.55272109738232 -15.20898377247684 0  -2.989017995593457 -40.95535635809919 0  -13.22190052900361 -39.03354603457672 0  24.37714442719343 -32.73706166300202 0  32.72016162898724 -25.0397548735341 0  23.85655858467394 2.780318663291299 0  7.116348558517625 17.51451932153139 0  -26.39628512271633 -8.928106005306056 0  0.02350511893370744 -28.20403975676331 0  -33.8887921188438 23.44926221977311 0  15.84008427919813 -25.93021878540602 0  -9.837726453965226 12.72402222193769 0  8.718135457451396 -2.514348299525392 0  -38.9825629797682 -13.50011748740342 0  2.478963578392589 -7.776160664007608 0  -39.2974701534657 13.83577449716469 0  -5.782917048334527 5.693957803005583 0  16.21536760822418 -5.280264636769961 0  9.748450673071982 -41.02662112502114 0  -22.57338443366978 34.94454162573084 0  -12.08533470036525 -12.46931387800101 0  -24.15585313247914 19.24456079889402 0  12.65550844644717 -18.86672580401232 0  5.058593636409722 -16.59488429094445 0  -35.67064314217058 -22.81085743436183 0  0.7091681957298737 22.88459363161705 0  -21.98782717492776 -24.14207000135622 0  -12.83630274771598 -28.0057207070579 0  18.86021432998261 26.61792330879507 0  12.89466880742462 12.27488826396994 0  40.39645904358717 -10.46481417154748 0  -23.28018958655644 -16.67340393589959 0  -13.03223841621119 40.45831984585366 0  -20.04642371943764 0.259553640680724 0  26.73515247273214 -13.73011653959805 0  31.8285219110813 -8.510688103075243 0  36.00274135885237 23.11585585752992 0  15.07734166280075 40.33680638832293 0  29.5950069735444 -1.627863659259882 0  -30.00926063169137 8.1268556805495 0  31.58171425749984 28.94962372137267 0  -7.628363574315783 30.41499011154217 0  -13.77447657608741 25.89564010157967 0  -42.53675317109606 1.280119628627302 0  -25.74986173620319 -34.75495953272202 0  -16.80100091689609 12.18247864891846 0  -0.4250842231592245 -20.86284417016705 0  43.11057378697588 -0.528123921717687 0  30.65050589146286 15.78300631863902 0  20.02119669364466 8.503668120756632 0  -33.00092177866705 -10.35659050771384 0  -19.97260541934124 -38.31941106435965 0  20.61006761354054 36.61217476382904 0  37.9492683074555 -20.83130321616646 0  5.938735493317073 32.35120990254622 0  -42.86811206682807 8.094643377897427 0  20.68658215430074 -38.20783136846184 0  21.95824268713381 20.83252074658316 0  -19.56616398130816 29.06740767864071 0  34.226783658499 2.988941221585117 0  29.08569296273383 -19.78247041842636 0  3.367662619066174 -43.14540365524412 0  -28.65159300328293 32.88825436843253 0  10.97401330487714 -29.86150867625665 0  0.3710023189345701 43.07278457370568 0  0.08486398907075809 36.84135372525365 0  -13.16901314043323 -1.954656032677171 0  -43.29688867347621 -8.175607841977172 0  -18.13739479467694 -13.36074103559275 0  -5.96831448514037 -0.2779481540838926 0  -7.961839821988638 -16.95059479299003 0  -30.70497738860438 -4.989351189528668 0  -33.88809981738217 0.359304182216911 0  42.27903623748788 12.15495181511426 0  -27.22078979959558 -21.41263343871201 0  27.70873848541929 -27.97803511188959 0  18.77380201906563 -20.94269191807955 0  0.003953295426194011 5.787627032867216 0  15.31845043418476 -40.00889419025217 0  25.68357198673229 8.15140821999687 0  -1.27578710535343 -33.70364453312022 0  -8.861173306373921 -43.22894726902777 0  9.784330350207583 -35.38074004887905 0  5.38098570900554 2.286177175177666 0  -22.72251293009235 -4.679040186641117 0  18.43807571167194 0.2647762828140281 0  5.377847667752137 -29.83160841391405 0  -30.81952154249699 -32.29209810109391 0  -12.36510578980826 -33.54285057986638 0  -39.00813553707313 20.00123245200689 0  -19.01355051989276 39.79651654316591 0  20.92752916427771 -28.30656715611526 0  -34.64216598585937 10.99953612850901 0  -6.592888574483213 17.51525689347105 0  -9.801854501500985 36.0931312124234 0  -21.43267636762113 23.9558475954634 0  24.43897603019749 25.88808834248066 0  18.1497711657353 13.58636910380305 0  31.90753132252803 -31.41511063761994 0  -33.15974787828191 29.21717292145748 0  10.00926124532823 43.17361741916985 0  13.44968539194856 27.877921757
[...]
<PointData  Scalars="f_19"> 
<DataArray  type="Float64"  Name="f_19"  format="ascii">0.0000000000000000e+00  0.0000000000000000e+00  0.0000000000000000e+00  0.0000000000000000e+00  0.0000000000000000e+00  0.0000000000000000e+00  0.0000000000000000e+00  0.0000000000000000e+00  0.0000000000000000e+00  0.0000000000000000e+00  0.0000000000000000e+00  0.0000000000000000e+00  0.0000000000000000e+00  0.0000000000000000e+00  0.0000000000000000e+00  0.0000000000000000e+00  0.0000000000000000e+00  0.0000000000000000e+00  0.0000000000000000e+00  0.0000000000000000e+00  0.0000000000000000e+00  0.0000000000000000e+00  0.0000000000000000e+00  0.0000000000000000e+00  0.0000000000000000e+00  0.0000000000000000e+00  0.0000000000000000e+00  0.0000000000000000e+00  0.0000000000000000e+00  0.0000000000000000e+00  0.0000000000000000e+00  0.0000000000000000e+00  0.0000000000000000e+00  0.0000000000000000e+00  0.0000000000000000e+00  0.0000000000000000e+00  0.0000000000000000e+00  0.0000000000000000e+00  0.0000000000000000e+00  0.0000000000000000e+00  0.0000000000000000e+00  0.0000000000000000e+00  0.0000000000000000e+00  0.0000000000000000e+00  0.0000000000000000e+00  0.0000000000000000e+00  0.0000000000000000e+00  0.0000000000000000e+00  0.0000000000000000e+00  0.0000000000000000e+00  0.0000000000000000e+00  0.0000000000000000e+00  0.0000000000000000e+00  0.0000000000000000e+00  0.0000000000000000e+00  0.0000000000000000e+00  0.0000000000000000e+00  0.0000000000000000e+00  0.0000000000000000e+00  0.0000000000000000e+00  0.0000000000000000e+00  0.0000000000000000e+00  0.0000000000000000e+00  0.0000000000000000e+00  0.0000000000000000e+00  0.0000000000000000e+00  0.0000000000000000e+00  0.0000000000000000e+00  0.0000000000000000e+00  0.0000000000000000e+00  0.0000000000000000e+00  0.0000000000000000e+00  0.0000000000000000e+00  0.0000000000000000e+00  0.0000000000000000e+00  0.0000000000000000e+00  0.0000000000000000e+00  0.0000000000000000e+00  0.0000000000000000e+00  0.0000000000000000e+00  0.0000000000000000e+00  0.0000000000000000e+00  0.0000000000000000e+00  0.0000000000000000e+00  0.0000000000000000e+00  0.0000000000000000e+00  0.0000000000000000e+00  0.0000000000000000e+00  0.0000000000000000e+00  0.0000000000000000e+00  0.0000000000000000e+00  0.0000000000000000e+00  0.0000000000000000e+00  0.0000000000000000e+00  0.0000000000000000e+00  0.0000000000000000e+00  0.0000000000000000e+00  0.0000000000000000e+00  0.0000000000000000e+00  0.0000000000000000e+00  0.0000000000000000e+00  5.8975497915611896e+01  1.7296389572738256e+01  1.7309837910566738e+01  1.7309171361196224e+01  1.7308179557300477e+01  1.6551452702322408e+01  1.4779338370911729e+01  1.2236251722359750e+01  1.0711213755274052e+01  9.9431475333897072e+00  9.9881804848271365e+00  2.9488929274915048e+01  9.2482008220145175e+00  8.8233397868920687e+00  2.9971082329569416e+01  3.0745619651492358e+01  7.9118836213911239e+00  8.2157851496709515e+00  7.6482268624939760e+00  7.8861000987589707e+00  3.0988471822359596e+01  2.8847292079382395e+01  7.4312496584332965e+00  7.2030187329667887e+00  7.1106104638885412e+00  7.3599439204786998e+00  2.4284113271210114e+01  6.5188895136194187e+00  8.4544610251177392e+00  7.4048237960181762e+00  5.6453575527413484e+00  5.9146502482475780e+00  1.7622644809147605e+01  1.5062912011208924e+01  1.7987882009002103e+01  1.8296597443873644e+01  1.4851218620124966e+01  5.7384877005729331e+00  4.0710073439718883e+01  4.0984520866983210e+01  5.2150065933881686e+00  5.1092378774684954e+00  5.4793255262511469e+00  1.7544815268052492e+01  4.9128843580775143e+00  4.8245518233395996e+00  5.0655629344169064e+00  4.8298800338001184e+00  1.8315799278999194e+01  2.4270309258188259e+01  1.4609315688890367e+01  1.4296613275181766e+01  4.8247388087254475e+00  1.2437448652885900e+01  2.8368634212852513e+01  4.2600545733751311e+01  4.8042569787786036e+00  4.5065301666781373e+01  4.5555689157348072e+00  4.5237504522551767e+01  2.6897810281166461e+01  4.2544329182028324e+00  4.5925112016289873e+00  2.6412121304690626e+01  1.2032919864237233e+01  1.9705863647814404e+01  2.6452395821997186e+01  4.1553202441278501e+00  1.9503002442399392e+01  1.0644290092474336e+01  1.2094894213387519e+01  1.0665787476799306e+01  2.5795968990970181e+01  4.5166714393929484e+00  1.3930464097182796e+01  4.0531512072143174e+00  2.2829729618564635e+01  1.2726074918613037e+01  1.0422995452688800e+01  3.8905247463388308e+00  3.7290286176722982e+00  1.3063854945774093e+01  1.1869353847392720e+01  3.8579940136118305e+00  1.1650887834593153e+01  1.3324902704492528e+01  4.0257157762718538e+00  3.6192967404900980e+00  2.1960377745977368e+01  2.1825930871016570e+01  3.6992093543940192e+00  9.2838127505718528e+00  2.0794743184533534e+01  9.2066491669250485e+00  3.6424846315518584e+00  4.3422293987033616e+00  3.5964069117742716e+00  1.0460208705976477e+01  3.4041102179161182e+00  3.5093814583938081e+00  1.2538324640597320e+01  8.8816459935697907e+00  9.3695924195486739e+00  8.7786738982346151e+00  3.6089754147408661e+00  3.4096358524069732e+00  1.1301403720993227e+01  3.7236463972304019e+00  7.6292304266474193e+00  3.3077549763519265e+01  3.1537623459436190e+00  1.9920416275786273e+01  5.0781556398502644e+01  2.4525892623983275e+01  1.1853944264074775e+01  9.7129341269516036e+00  3.1901015247973072e+00  9.1691899126268357e+00  5.9634459815032894e+00  1.4374037928412951e+01  5.1289464948848433e+01  3.8612705315378015e+00  1.5446281999608933e+01  9.8334993301773377e+00  3.1168967640544691e+00  7.7177242811980848e+00  5.1156208051562302e+01  1.9181361939541681e+01  2.4941485871304593e+01  1.2497643684837897e+01  2.8323280900670817e+00  8.3781978393070187e+00  3.2812338841584396e+00  3.1337150763075337e+00  8.7644642777174475e+00  7.9656480175430566e+00  2.4557147696334603e+01  7.2513347545224143e+00  1.1038896725741850e+01  8.4829586092846796e+00  1.9758925710843332e+01  2.7497482342323498e+00  3.0810456443305374e+00  3.0125975326237695e+00  1.1978069821763906e+01  6.6769676452572027e+00  3.0373420694736608e+00  2.8454095197633644e+00  2.9805903779763208e+00  3.5731500869170986e+01  6.3181912149834787e+00  8.3534888008920412e+00  7.4807767377459760e+00  6.5373314983803947e+00  2.0866722684976658e+01  4.2305945872026655e+01  1.3389652254055283e+01  1.3479421339371267e+01  4.5535251746208916e+00  1.2684410871847296e+01  2.7278965145331298e+00  1.6562301021870194e+01  2.5696009994121054e+00  7.3180054723480916e+00  1.5851565043625735e+01  2.3368684239344628e+01  3.2931933559760004e+01  2.5417522974508038e+00  9.3787976366431263e+00  2.6957229863479246e+00  1.3124430336764062e+01  1.7945921498419899e+01  1.5901298382239897e+01  1.8882653821864707e+01  1.3619981225509152e+01  3.3306579080101194e+01  3.0662574002085083e+01  1.4258377952533108e+01  1.8424851183416582e+01  3.8324041291129667e+01  3.8377757993887926e+01  1.7526115680820588e+01  2.5997185740896054e+00  2.4745445365032412e+00  3.1724263454525357e+01  1.1047696507881916e+01  3.8167088087397207e+00  5.7213871212378864e+00  6.4301379671804249e+00  2.2119464665212963e+01  2.5703969680543777e+00  2.5799830202004617e+00  1.6685124822324443e+01  1.2415315837693655e+01  6.1473509951682503e+00  4.0349897280179341e+01  5.3720829947887005e+01  3.3734151716252278e+01  3.7798988809329209e+01  6.1337533522300500e+00  1.2572331997433682e+01  2.1834769324556135e+01  2.3887286147872420e+00  6.2731469912009015e+00  2.2442501820183449e+00  5.3266963964110481e+01  2.3065373424180709e+01  2.2401516071660859e+00  6.9119603412791193e+00  6.0265901909807678e+00  2.2299159650851248e+01  2.8386711305654440e+01  2.2840779748193620e+00  6.0008074632366455e+00  2.3296527399161899e+00  2.4304523661162332e+00  2.3425427708395934e+00  2.1791779496364034e+00  2.2593670330107640e+00  2.8619780392295144e+00  2.1575284933377397e+00  5.7182953771577543e+00  3.2478269572421361e+01  1.7468716670289638e+01  1.7809289643233722e+01  7.3023832728068525e+00  2.3816401487496277e+00  5.5422960529253826e+00  1.1364264259169255e+01  6.7524158728290109e+00  1.0490775829079524e+01  3.2766638239768902e+01  2.2238089679001614e+01  1.9593442800821855e+01  2.7141924806763914e+01  6.2712627359678628e+00  2.1340350276212554e+00  2.5918302849523013e+01  2.1141417563424203e+00  1.4806136487035937e+01  6.3896467843605143e+00  6.7776493415654899e+00  2.4558828563136014e+01  2.0613583373671616e+00  1.4317835381992900e+01  9.8258553758935605e+00  2.2951667503594866e+00  2.9059510054889839e+00  2.0983296084130732e+01  2.2491079524409400e+01  1.6468889203005897e+01  2.7733178690660334e+00  2.2570020631992920e+00  5.6742307609689924e+00  7.2739014774708588e+00  1.2375870841520307e+01  5.4853848250960562e+00  3.2149868206455139e+01  5.4903224886000261e+00  8.4484520750497154e+00  2.0180920940729262e+01  1.5820132560471437e+01  1.9899115981974180e+00  3.5782297455733833e+01  5.5098721596611583e+01  2.1738195891217483e+01  7.5706552138717358e+00  2.4052421103775117e+01  2.1557258185361903e+00  9.0489387887352652e+00  1.4067966227097401e+01  2.2159930185301655e+00  2.2713247315629199e+00  1.5238605633668975e+01  5.0539212256207122e+00  2.1021257293934310e+00  5.6523436917541350e+00  1.3679315706914295e+01  1.3881145654492686e+01  2.5147855195990630e+01  1.3655915235205443e+01  1.9153948795205245e+00  7.9028345139496485e+00  1.0279679628311493e+01  8.6086708393512339e+00  4.0504819825391863e+01  1.8793594944977643e+00  2.4812648133166146e+01  6.3274682468947949e+00  5.2207419563814899e+00  1.3590039215806005e+01  1.8013823863700413e+01  1.5687062116118991e+01  1.0956685983412468e+01  1.3792799812458467e+01  8.2466668633250126e+00  9.9090320928628941e+00  2.6919503763799430e+01  1.1053495102738291e+01  9.1022483025614456e+00  1.5584038841405683e+01  1.1548746774358388e+01  1.8057637662686368e+01  1.8384849317508074e+01  2.7861369231952384e+01  6.9168520375067333e+00  8.8248179245429288e+00  2.5638894935736499e+01  2.3650551947654112e+01  1.1239151993086471e+01  1.4517324006002358e+01  1.0148111886691172e+01  1.8310450693023583e+01  8.1709408304116575e+00  1.1799187209955758e+01  1.6514099326561222e+01  4.7488205149065390e+00  5.2053675822505632e+00  1.0724937220643099e+01  9.8397644710700956e+00  4.1085752712919046e+01  1.9721971401544247e+00  1.8686380998131529e+00  1.7838049991991434e+00  9.9335197457660893e+00  9.6338305026270490e+00  7.8661763019162754e+00  1.7949578664015826e+00  1.9386959253981060e+00  1.0363926435366839e+01  9.8582278906612952e+00  2.3938860008972600e+01  1.8043248888772776e+01  1.8426898756369448e+00  1.3986610180091425e+01  1.0814892380547196e+01  2.7900159194051447e+01  5.9670282754692856e+00  2.1283629485304935e+01  2.7030122019293463e+00  1.8657208116867612e+00  4.8951058855580865e+00  1.2107984430881602e+01  4.5086049578699150e+00  2.0501555257520028e+01  1.5564236896947239e+01  6.0145952679925863e+00  1.9245513335126405e+00  1.0252201198625883e+01  4.5668124103863077e+00  4.8372223568575727e+01  1.0246980617168864e+01  3.1272990140249217e+01  1.6925278016630838e+00  1.0164496402527002e+01  4.4434951016956120e+01  1.8703300631420390e+01  5.7219489015901956e+00  1.6620249135359844e+00  1.6607722032629144e+00  5.6718690186718606e+00  4.5005660786236046e+00  4.5321025230628100e+00  1.5159521928890662e+01  9.7660791331713117e+00  1.8242824394373882e+00  4.4293078159806463e+00  5.5714406184642034e+00  5.6145540788826391e+00  1.0064836290097981e+01  1.6923375968795693e+01  2.4956370536905595e+01  1.9582232493002878e+00  3.9207030913859278e+01  5.5388114995061493e+00  8.1702967224228242e+00  1.7339444491043523e+01  9.1448822346361727e+00  7.9426362065492340e+00  4.8144157496563365e+00  1.5033097813188178e+01  1.2193105465268575e+01  4.1413802887153635e+00  2.9368095401388473e+01  9.4583632795114578e+00  1.5712170696157273e+00  6.8726726913681588e+00  1.1842522917210687e+01  2.7833809627600754e+00  4.7364902493293499e+00  1.7324863878752366e+00  1.6995081792882643e+00  2.2705259921859991e+01  2.0414087896297883e+00  3.4102485896094322e+01  2.9019058349274356e+01  3.6055344763420010e+01  1.1067783298450946e+01  2.0647354727532477e+01  6.7629166704322952e+00  5.2478140904216044e+00  1.9478606536628678e+01  7.6287786442364727e+00  8.0138265961073305e+00  5.6085576323858632e+01  1.3269204322043336e+01  2.3580597049729693e+01  3.6752133427030986e+00  1.1030019295454734e+01  4.8023895329563366e+00  1.9176127675593431e+01  1.6540480399207185e+00  8.4916520872142005e+00  1.7536308556191733e+00  4.2823817670242121e+00  5.2311020231352821e+00  2.1046765174618095e+01  1.6076450717796156e+01  4.7124490608850582e+00  1.1072175719031641e+01  7.1826824275415708e+00  1.6648734397843004e+00  6.1144664566315576e+00  3.4346022651502324e+01  1.4674745952367417e+01  4.2904913754157956e+00  6.6327425932617530e+00  2.0534209075243947e+01  2.3473120879730068e+01  1.3125726734332870e+01  1.2952809418625378e+01  1.4948574597608166e+00  4.3973702398612575e+00  1.5498539174895560e+00  1.7457147515430574e+01  5.5822258152888232e+01  2.1101939897455303e+01  7.2757779320515787e+00  3.6219031316612451e+00  9.4901882419359147e+00  1.4586978918021958e+00  9.7348186141726742e+00  1.1817439810047416e+01  4.1926834194883851e+00  4.6706390282441754e+00  3.8077873448285460e+00  1.9837770304179212e+01  3.9651544594871693e+00  1.4134870963590118e+00  1.1630606907429637e+01  1.3362394966114291e+01  7.8407810980014911e+00  1.9941132395342731e+01  1.3737751374691948e+01  8.7651031229544341e+00  4.0511684299734068e+00  5.6506384562651903e+01  2.3134140855074119e+01  5.5916604291514469e+00  7.2785133374348661e+00  8.5920653307648038e+00  4.8990082919684731e+01  9.4406144902039859e+00  7.5371611261280451e+00  1.7614277156948699e+00  1.4657168132314875e+00  3.3866140114971117e+01  1.4614177134040776e+00  5.4703492698740623e+00  4.3093393854889630e+00  1.6723345444129261e+00  1.6080468417646432e+00  4.4111384517060168e+00  3.1946193224363853e+01  8.0309762280149499e+00  1.4179317624589685e+00  5.0386488191736355e+01  2.1337207463669500e+01  1.1535277308221348e+01  4.8208129282713807e+00  2.9887680096809750e+00  1.6073417199651108e+00  4.5361100106785585e+01  3.5077622334024412e+01  2.9598715170468228e+01  2.7957633436868701e+01  3.5075932143560287e+01  1.4368080952666125e+00  2.1766580436410230e+01  1.6692753854525602e+01  2.2652560023843435e+01  1.4746484338482945e+01  1.4301527449997762e+00  4.6728970223286845e+00  3.7594993575892213e+00  2.4922148608233851e+01  1.6409838575546682e+00  8.6489416320658066e+00  1.6277984559417502e+00  1.6138367174831851e+00  3.8683551513992436e+00  1.4901174435597477e+01  1.5408912227116416e+00  1.3337932468241946e+00  3.8744458844628320e+00  4.5259975509822139e+00  8.3506948061690061e+00  1.4127937112047368e+01  1.4094935468941070e+00  4.9836251342287134e+01  4.7558526134062582e+01  2.5652279140396569e+01  2.6537714655227091e+01  1.1917918121396887e+01  9.0494052217499199e+00  7.8252216364621399e+00  6.2344404417587231e+00  1.3932552848943413e+01  1.4770350094365297e+01  2.8451524117244662e+00  1.2370445165734830e+01  1.3903850529521635e+00  2.1118012283820056e+00  3.7332799069773671e+01  1.2164089536469080e+01  1.5518010166358540e+01  1.5420010913062170e+00  1.3902768414887394e+00  3.9556417297235367e+00  7.2588396002200959e+00  4.0236647043743528e+00  4.2029810250470359e+00  1.3734895080652993e+00  1.2444968460827569e+01  1.4884254096478331e+01  6.2493108446994388e+00  3.4027841752580592e+00  1.5382453886068967e+01  3.8948110255533672e+00  6.8668882496690946e+00  5.6529521816055928e+00  1.3488479241522275e+00  3.2532509368508791e+00  4.4886837062182636e+01  2.6448347908711771e+01  7.3287054546141155e+00  1.4191939612066644e+00  1.0595700651940103e+01  3.9922009784196860e+01  9.4722048157169940e+00  3.1049932519769659e+00  1.0246612880570378e+01  1.1865740468839986e+01  6.5662981745403979e+00  6.4497140142879044e+00  8.6140204598195780e+00  1.1928160881052092e+01  3.6990250823388426e+00  5.4637902594812360e+00  1.3100926163421962e+00  6.4687936531350410e+00  1.7957700515748552e+01  1.6169673532388259e+01  3.5546229252588732e+00  4.4238112595797858e+00  1.2683125371124826e+00  7.3780317609699786e+00  9.0771815665219115e+00  1.1932318060201936e+01  5.9907361860548365e+00  3.0173989593848088e+01  1.7036962653429296e+01  6.8518198775701924e+00  3.5248782643131293e+00  4.0321568345490801e+00  8.3098017689675654e+00  6.6248970769900675e+00  3.8602629707166727e+01  1.2923470011382803e+00  1.9221463851162245e+01  2.1079194330991861e+01  2.0410012780512155e+01  3.5259431890448035e+01  1.0276172959083883e+01  1.8097835125902119e+01  1.2155497126302131e+00  1.4623657325071878e+01  1.2676545163231889e+00  5.7694232872196194e+00  1.0185863529866412e+01  2.3049006006153263e+01  1.3389396283681243e+00  1.2737737372975557e+01  1.5887493558635773e+01  1.2163737698134209e+00  1.2844823900792255e+00  6.3391093924158222e+00  8.9138402916525123e+00  1.0111144070270607e+01  1.2252368917983915e+01  9.9398666800823428e+00  4.6578228150473549e+01  3.9728327774751406e+01  5.8805224923777084e+00  2.7098395617451331e+01  2.4591637026976478e+00  1.3170011768490086e+00  3.3468611228551115e+00  3.7788521628860650e+01  4.3141419915989347e+00  1.1375348761689439e+01  3.1411862725117697e+01  2.1332315215788867e+01  6.2672866052230098e+00  7.9889288202857145e+00  1.4785897202522469e+00  1.1840928670863576e+01  9.1668176416893363e+00  1.0291930546867780e+01  5.5577024097668266e+00  3.3261185838342588e+00  3.5443322978009850e+00  1.2458923222780292e+00  6.5024790083419157e+00  8.0259846514883257e+00  1.0228593335753965e+01  1.1457822323382356e+00  1.3118933221951089e+01  7.2144582883544279e+00  2.9384696701109924e+01  3.3316025787481351e+01  1.7056009960947780e+01  2.9387924470938254e+00  6.7688036966066623e+00  2.2758070098198907e+01  2.5006253760656211e+01  3.9896794310502074e+01  1.1238382738535120e+00  1.1547478702811820e+00  2.0386919491220450e+01  1.4045084579964310e+01  1.2766652934700529e+00  6.2516635119253809e+00  7.8756757901509840e+00  7.9306583882828763e+00  1.5250151987257274e+00  1.4230971029960149e+00  1.5777022469202901e+01  1.1168860464007413e+00  9.8163620106544283e+00  4.6607593505011060e+00  5.5743741145962558e+00  8.0619228430270997e+00  3.2295030492757377e+01  4.8843676138495198e+00  1.2029991342781626e+01  1.4839998640998278e+00  3.9992839181118205e+00  1.1193343032478920e+00  1.2852139135486242e+00  6.6374088429310421e+00  7.2875162994957829e+00  4.9387785567419735e+00  3.2229027272858922e+01  2.9497247728973495e+01  4.4961751032951959e+01  1.2991225917831282e+00  1.3736808208645546e+00  1.3458475573167769e+01  1.7338173878837697e+01  2.0824967653776717e+01  1.6830393913568347e+01  1.0860077294443575e+00  7.8414402035945230e+00  1.6165569275198131e+01  1.8839148025339878e+01  7.3312243953290501e+00  2.7590204632948367e+00  1.8579232400399473e+01  3.1643252497123189e+01  3.4144327002296473e+00  4.1095578129262353e+00  1.3683112681542500e+01  3.6586348704087168e+00  1.2161933673548844e+00  7.0381455072281245e+00  4.9894505216554537e+00  1.2653267061162641e+00  7.0185593639699801e+00  1.6498424646831065e+01  1.6895784356208779e+01  9.1642318116494383e+00  6.0132259581006489e+00  2.7887546166498300e+01  2.9333650768489563e+00  1.5494875329220450e+01  1.3461989004907052e+01  1.3181022007132819e+01  2.4883817859266461e+01  1.1630177323872959e+00  1.6919725002653692e+01  1.4191331132432834e+01  3.0743610951779012e+00  3.8363514870185975e+00  1.1645731322681458e+00  3.1881693713166680e+01  2.8453205655468583e+01  1.9073094934313549e+01  3.0662740750380994e+01  1.9878822052481926e+01  2.0348227418760128e+01  7.3763272896279233e+00  2.7898324090317271e+01  4.4478587000613089e+01  8.8325174221786948e+00  1.1804415132262260e+00  1.2909929764366321e+00  4.9238404657728516e+00  1.0064993823055065e+01  8.4347330417302970e+00  1.4705058589849381e+01  3.7255723961158715e+01  7.6812578218109113e+00  1.3960373216527547e+01  1.7361747223858412e+01  4.8225560579001211e+01  5.3361579399887454e+01  2.7998993219024535e+00  2.8756297106013786e