<?xml version="1.0"?>
<VTKFile type="UnstructuredGrid"  version="0.1"  >
<UnstructuredGrid>
<Piece  NumberOfPoints="2022" NumberOfCells="3905">
<Points>
<DataArray  type="Float64"  NumberOfComponents="3"  format="ascii">-0.9995162822919881 0.03109986226983675 0  -0.9995162822919881 -0.03109986226983651 0  -0.9956493479690185 -0.09317926748407192 0  -0.9879304397407568 -0.1548981802140844 0  -0.9763894205636071 -0.2160178219764831 0  -0.9610709403987245 -0.2763017327508303 0  -0.9420342634699892 -0.3355166857975248 0  -0.9193530389822364 -0.3934335899667521 0  -0.8931150161867916 -0.4498283760076358 0  -0.8634217048966636 -0.5044828634486397 0  -0.8303879827647976 -0.5571856046954283 0  -0.7941416508447534 -0.6077327030805317 0  -0.7548229391532574 -0.6559286016999396 0  -0.7125839641475068 -0.7015868399847768 0  -0.6675881402161539 -0.744530775081015 0  -0.6200095474607752 -0.7845942652463659 0  -0.5700322582137825 -0.8216223126204009 0  -0.5178496248983256 -0.8554716628811637 0  -0.4636635319853273 -0.8860113594683148 0  -0.4076836149416893 -0.9131232502286186 0  -0.3501264491913909 -0.9367024445236749 0  -0.291214712227252 -0.9566577190314197 0  -0.2311763221149701 -0.9729118706714374 0  -0.1702435557223987 -0.9854020152886813 0  -0.1086521500854744 -0.9940798309400526 0  -0.04664039038741795 -0.9989117448426108 0  0.01555181192035077 -0.9998790632601495 0  0.07768384728900643 -0.9969780438256293 0  0.1395153389439227 -0.9902199100196695 0  0.2008070728557184 -0.9796308077490816 0  0.2613219232128601 -0.9652517041934358 0  0.3208257698153674 -0.9471382293110002 0  0.3790884038403785 -0.9253604606172419 0  0.4358844184753714 -0.9000026520685299 0  0.490994080973322 -0.8711629080999506 0  0.5442041827560273 -0.8389528040783012 0  0.5953088642766656 -0.803496954638676 0  0.6441104114503976 -0.7649325315746478 0  0.6904200205717462 -0.7234087331472503 0  0.7340585287594604 -0.6790862068658857 0  0.7748571071028897 -0.6321364279743266 0  0.8126579138282498 -0.5827410360463015 0  0.8473147049577773 -0.5310911322572754 0  0.8786934000992683 -0.4773865400511279 0  0.9066726011770726 -0.4218350320620621 0  0.9311440620976594 -0.3646515262826555 0  0.9520131075327298 -0.3060572545878874 0  0.969198999199666 -0.246278906832002 0  0.9826352482222637 -0.1855477538294935 0  0.9922698723632765 -0.1240987526132593 0  0.9980655971335943 -0.0621696374314802 0  1 0 0  0.9980655971335943 0.06216963743148052 0  0.9922698723632765 0.1240987526132593 0  0.9826352482222637 0.1855477538294933 0  0.9691989991996661 0.2462789068320013 0  0.9520131075327299 0.3060572545878873 0  0.9311440620976595 0.3646515262826552 0  0.9066726011770726 0.4218350320620622 0  0.8786934000992688 0.477386540051127 0  0.8473147049577775 0.531091132257275 0  0.8126579138282503 0.5827410360463009 0  0.7748571071028899 0.6321364279743263 0  0.7340585287594601 0.6790862068658859 0  0.6904200205717467 0.7234087331472497 0  0.6441104114503978 0.7649325315746476 0  0.5953088642766661 0.8034969546386757 0  0.5442041827560273 0.8389528040783012 0  0.4909940809733222 0.8711629080999505 0  0.4358844184753712 0.90000265206853 0  0.3790884038403794 0.9253604606172415 0  0.3208257698153678 0.9471382293110001 0  0.2613219232128607 0.9652517041934356 0  0.2008070728557187 0.9796308077490816 0  0.1395153389439231 0.9902199100196695 0  0.07768384728900624 0.9969780438256293 0  0.01555181192035079 0.9998790632601495 0  -0.04664039038741771 0.9989117448426108 0  -0.1086521500854744 0.9940798309400526 0  -0.1702435557223985 0.9854020152886813 0  -0.2311763221149697 0.9729118706714375 0  -0.2912147122272519 0.9566577190314197 0  -0.3501264491913905 0.9367024445236751 0  -0.4076836149416887 0.9131232502286188 0  -0.4636635319853274 0.8860113594683148 0  -0.5178496248983254 0.8554716628811638 0  -0.5700322582137827 0.8216223126204008 0  -0.620009547460775 0.7845942652463661 0  -0.6675881402161536 0.7445307750810152 0  -0.7125839641475069 0.7015868399847767 0  -0.7548229391532568 0.6559286016999401 0  -0.7941416508447533 0.607732703080532 0  -0.8303879827647973 0.5571856046954289 0  -0.8634217048966635 0.5044828634486399 0  -0.8931150161867915 0.449828376007636 0  -0.9193530389822362 0.3934335899667527 0  -0.9420342634699891 0.335516685797525 0  -0.9610709403987245 0.2763017327508305 0  -0.976389420563607 0.2160178219764834 0  -0.9879304397407567 0.1548981802140847 0  -0.9956493479690186 0.09317926748407171 0  5.551115123125783e-17 0 0  0.02333148104424389 -0.4996975849918167 0  -0.4209280963089264 -0.270047118857733 0  -0.00777966912389263 0.5001814782683327 0  -0.4395593226777351 0.2388087860642122 0  0.4442595773531702 -0.2296504661340836 0  0.4423925704067452 0.258482580900499 0  -0.6651486582575017 -0.04143219748347785 0  -0.3287098382517658 0.5832245839803352 0  0.3466890397163773 -0.5727196372249457 0  -0.2918151200712525 -0.6025321641375986 0  0.3230162658566326 0.5762200782021024 0  0.6683672950285938 0.01527679304875809 0  -0.7025928895082204 0.2258725737643941 0  -0.5718504183690389 0.4665214753659448 0  -0.542710655779982 -0.5020680316624897 0  0.5813630834444037 -0.4540527216333786 0  0.1491947766468252 0.2524717701697159 0  0.2830612929698411 0.003046961144007788 0  0.1441699005738253 -0.2436620139494793 0  -0.1388560041427788 -0.2466405164019328 0  -0.2855463377583715 -0.001647919230600514 0  -0.1442086298178765 0.2479082636799899 0  -0.1187916235737837 0.7328206594370892 0  -0.07300263801713545 -0.7387883212203921 0  0.5962669409661588 0.4563051433021531 0  0.7087446857970995 -0.2349375285920891 0  -0.6674377015453163 -0.2886306903687117 0  0.1195633378147606 0.7037538824123228 0  0.1697381037901342 -0.7388865522751753 0  0.6681356154214577 0.2416466605471067 0  -0.2679744298694503 -0.401962615527571 0  0.2088335603544491 -0.4307138477654194 0  0.4740587623311665 0.0613200991607939 0  -0.1949775464410695 0.4383909063428807 0  -0.4820136903536306 0.04206552139571121 0  0.5086382190404931 0.6279114083760715 0  0.2931647757595038 0.3837106302070115 0  -0.3977316151836833 0.4153928614271748 0  0.8110099959168922 0.1271587223650321 0  -0.8011037500639352 -0.1637831060937915 0  -0.8201300737720695 0.05108601025773882 0  0.4092742881237901 -0.4051098328645908 0  -0.5052006739601993 0.6392951173809412 0  -0.2981784980049969 0.7624621529114175 0  0.5218954340712294 -0.627827846533499 0  -0.447910854813887 -0.6905056585933735 0  -0.2501997050620266 -0.7795248930481341 0  0.3362667274473467 0.7531648461132786 0  0.8152703914874666 -0.08938231006403732 0  0.1659377057806948 0.5020082897293465 0  0.3455637284030154 -0.7488221651697442 0  -0.5527208909239346 -0.1660831165424255 0  0.5785954697393136 -0.127574831330856 0  -0.125207573330868 -0.578801203441129 0  -0.7292625703617568 0.3962020600296529 0  0.7519209052211966 0.3787142233101828 0  -0.7112127304779425 -0.4457833342148129 0  0.03930906251743724 0.8418944160041535 0  -0.40240422016394 -0.1110474624281762 0  0.4460628519952527 0.4143838158833938 0  0.1591343619238914 -0.5809751192318731 0  0.2967736134690338 -0.2914604510684526 0  -0.1129308433779321 -0.4228406677914103 0  0.02213437337686615 -0.3425993932387146 0  -0.1381756081722318 0.580764693797892 0  -0.2935510861096439 0.2974695489943695 0  0.3451350964369386 0.1417379061931819 0  -0.3179465306075686 0.1471508546109051 0  0.03950964385163493 -0.8461903288140989 0  0.7354189720468894 -0.3970284500424835 0  0.2056107280916567 0.8262801318628323 0  -0.2842864256991968 -0.2053873628914543 0  0.3211465683754942 -0.1427527114874482 0  0.003770026324731485 0.168090356366038 0  0.004485747676541946 0.3343616508317944 0  0.1406758648996468 0.08093229784893238 0  0.1404408605565098 -0.08138619316291411 0  -0.0002365153281450285 -0.1622743339952615 0  -0.142310868591863 -0.08092992084104275 0  -0.1416514501087424 0.08349845308993681 0  -0.3918901255966294 -0.4889350676140473 0  -0.5676907364146558 0.1635055494378738 0  -0.5705326150420498 0.3150030514525305 0  0.03063188402343345 -0.6415918287745908 0  -0.8042439563488961 -0.3149553308921465 0  -0.8383872850068251 0.1902761570660613 0  -0.6356097174141544 0.5880100497917053 0  -0.598261571786873 -0.6268468944145426 0  0.6472548037315684 -0.5736643369816096 0  -0.6824205939486836 0.09242333031617389 0  -0.1748367034031682 0.8529352006544857 0  -0.1395623613206797 -0.8550216334909679 0  0.5496346349979665 0.1745825000499298 0  0.5750724899989313 -0.3038117655607379 0  -0.5383755827401081 -0.3563724941951704 0  0.6368521839598871 0.5852059414316831 0  0.8389464341137104 -0.2411917202850598 0  0.8230317946895901 0.2627001928453164 0  0.4474702812377729 -0.09444218791067419 0  -0.01039644345079718 0.641739009226776 0  0.5494620674796687 0.3339557342437605 0  0.1254931155218234 0.3793920118378314 0  0.4597186346106346 -0.5194351967460381 0  -0.4422024255722171 0.5317904080318188 0  0.3187159128609073 0.2626310497312937 0  -0.6770383169587997 -0.1649319445983651 0  0.252378320348904 -0.8371608764484268 0  0.2562972222737581 -0.6537623766332417 0  -0.2324479464013347 0.6590464662729728 0  -0.4321215713087805 0.7520294629121379 0  0.2409401066752064 0.6713348420076577 0  0.695824795451179 -0.1016115770006848 0  -0.1967046037086473 -0.6735580808179211 0  0.7107733514995316 0.4910917266505546 0  -0.7942649515777171 0.298771509337957 0  0.8762710271648161 0.02013029094262096 0  -0.2014855026831708 -0.4943333803832685 0  -0.880127545018407 -0.05482326063978059 0  0.6947680012785505 0.1284888653170302 0  -0.3748214000881579 -0.7922416636990919 0  0.2276613052537662 0.1625937354850626 0  0.07832732132735343 0.572576168484091 0  -0.08224176762925209 0.411310100749688 0  0.4571163124086939 0.7551420974441174 0  0.398239261218658 0.6595555369163871 0  0.4348963931120646 0.5335890184726879 0  -0.3787968992480747 -0.3758280199632927 0  -0.5039197808489907 -0.06657685903797524 0  0.4601730122222897 -0.7601916715805839 0  0.4158381347752194 -0.6589451582402598 0  0.5337497987550025 -0.02901956494055508 0  -0.7719304189794466 -0.05948880086976177
[...]
<PointData  Scalars="f_17"> 
<DataArray  type="Float64"  Name="f_17"  format="ascii">0.0000000000000000e+00  0.0000000000000000e+00  0.0000000000000000e+00  0.0000000000000000e+00  0.0000000000000000e+00  0.0000000000000000e+00  0.0000000000000000e+00  0.0000000000000000e+00  0.0000000000000000e+00  0.0000000000000000e+00  0.0000000000000000e+00  0.0000000000000000e+00  0.0000000000000000e+00  0.0000000000000000e+00  0.0000000000000000e+00  0.0000000000000000e+00  0.0000000000000000e+00  0.0000000000000000e+00  0.0000000000000000e+00  0.0000000000000000e+00  0.0000000000000000e+00  0.0000000000000000e+00  0.0000000000000000e+00  0.0000000000000000e+00  0.0000000000000000e+00  0.0000000000000000e+00  0.0000000000000000e+00  0.0000000000000000e+00  0.0000000000000000e+00  0.0000000000000000e+00  0.0000000000000000e+00  0.0000000000000000e+00  0.0000000000000000e+00  0.0000000000000000e+00  0.0000000000000000e+00  0.0000000000000000e+00  0.0000000000000000e+00  0.0000000000000000e+00  0.0000000000000000e+00  0.0000000000000000e+00  0.0000000000000000e+00  0.0000000000000000e+00  0.0000000000000000e+00  0.0000000000000000e+00  0.0000000000000000e+00  0.0000000000000000e+00  0.0000000000000000e+00  0.0000000000000000e+00  0.0000000000000000e+00  0.0000000000000000e+00  0.0000000000000000e+00  0.0000000000000000e+00  0.0000000000000000e+00  0.0000000000000000e+00  0.0000000000000000e+00  0.0000000000000000e+00  0.0000000000000000e+00  0.0000000000000000e+00  0.0000000000000000e+00  0.0000000000000000e+00  0.0000000000000000e+00  0.0000000000000000e+00  0.0000000000000000e+00  0.0000000000000000e+00  0.0000000000000000e+00  0.0000000000000000e+00  0.0000000000000000e+00  0.0000000000000000e+00  0.0000000000000000e+00  0.0000000000000000e+00  0.0000000000000000e+00  0.0000000000000000e+00  0.0000000000000000e+00  0.0000000000000000e+00  0.0000000000000000e+00  0.0000000000000000e+00  0.0000000000000000e+00  0.0000000000000000e+00  0.0000000000000000e+00  0.0000000000000000e+00  0.0000000000000000e+00  0.0000000000000000e+00  0.0000000000000000e+00  0.0000000000000000e+00  0.0000000000000000e+00  0.0000000000000000e+00  0.0000000000000000e+00  0.0000000000000000e+00  0.0000000000000000e+00  0.0000000000000000e+00  0.0000000000000000e+00  0.0000000000000000e+00  0.0000000000000000e+00  0.0000000000000000e+00  0.0000000000000000e+00  0.0000000000000000e+00  0.0000000000000000e+00  0.0000000000000000e+00  0.0000000000000000e+00  0.0000000000000000e+00  0.0000000000000000e+00  1.3293217696751869e-02  3.2549468465097693e-03  3.2468955874200758e-03  3.2228644282120272e-03  3.2273699982638257e-03  3.2435045447340260e-03  3.1158666311911038e-03  1.8950980206647711e-03  1.8663255580545811e-03  1.8820754618171299e-03  1.8841092827122849e-03  1.9300693870015289e-03  1.8797391076256597e-03  1.4173336096961315e-03  1.4152266020146444e-03  1.4152544086259188e-03  1.4257849349445732e-03  5.7078351445324855e-03  5.8857185274311212e-03  5.9295180603741058e-03  5.9285424586752239e-03  5.8560312141288564e-03  5.8023951903894569e-03  1.3849251452138301e-03  1.3995200744114683e-03  1.3342845354126821e-03  1.3656104539127604e-03  1.4922460217088461e-03  1.5674931158482070e-03  1.3007993407855353e-03  1.5937684897954474e-03  3.4142765639115173e-03  3.4620657346076849e-03  3.4426546956613335e-03  3.4159085057381840e-03  3.3900848093452751e-03  9.9209297838574436e-04  3.3886981275760529e-03  2.5768938059430035e-03  9.1907067747416414e-04  9.3962145838242844e-04  9.1691468811730772e-04  2.5876969103394323e-03  9.5237238180926394e-04  9.2953924712210973e-04  9.4963355242831421e-04  9.1291709734807758e-04  9.3778191492041238e-04  8.9621911260904499e-04  9.2547643739432329e-04  2.9643009647561296e-03  9.0462700853303384e-04  2.5715448513848249e-03  2.4462867229974104e-03  2.4618276880444909e-03  8.6880862673359980e-04  8.0133542627136719e-04  8.2067662331163115e-04  7.9571001434996299e-04  4.0880146148568304e-03  2.3101458130305843e-03  2.3819882507971402e-03  4.1136126292443884e-03  3.8853430201768440e-03  5.0300112786672221e-03  2.3998275535886834e-03  4.0620420126421209e-03  4.5932754210657196e-03  4.8844630427931513e-03  7.7890177870705568e-04  8.3954790103655402e-04  7.4777455101553570e-04  4.9081676247353925e-03  4.8925403872671315e-03  8.2832477785554047e-03  5.0932262449159774e-03  8.4402029953778435e-03  8.4937585463870074e-03  8.5885224774358577e-03  8.4895784852000444e-03  8.4066754878165378e-03  2.1936715081308095e-03  2.4573531629145744e-03  1.9956338056817693e-03  2.0793486219379772e-03  6.8566824959417829e-04  7.0539613238714211e-04  6.7066787103459158e-04  6.7152133980934300e-04  6.8009568972167075e-04  1.7413706440938073e-03  6.4431152606401294e-04  6.7383220811744772e-04  2.5652326412838821e-03  2.0124151036208589e-03  2.0492805494657660e-03  6.7532501572663327e-04  6.3535681864738860e-04  6.8087935289303804e-04  3.6577255295101095e-03  2.0620474337888690e-03  2.0571963518583583e-03  4.2677671854802757e-03  1.7153807833705909e-03  1.7173249424383369e-03  4.1171900720409641e-03  1.6887036000528667e-03  6.3056323664053193e-04  1.6592884561202656e-03  1.6666115772150780e-03  6.6222157895316444e-04  1.5702618710440165e-03  1.6448407628785269e-03  1.6632555587145683e-03  6.8139435364239400e-04  7.6515786614166710e-04  6.1454774605166317e-04  2.9496155724543674e-03  5.8664989895779792e-04  1.6197592751038476e-03  6.1825948844190229e-04  5.9317339990874367e-03  2.5519929888927423e-03  4.0387021934380884e-03  5.8024607503751144e-04  1.2131628497472670e-03  1.7382925514967402e-03  2.9449598502116030e-03  3.1643289787653115e-03  5.5337766443241617e-04  1.1695936481821280e-03  2.9259646580022166e-03  1.1957224088173604e-03  8.5460070409408193e-04  5.6127437765922969e-04  8.3859770485232099e-04  7.3345098722824324e-04  1.1840688462142908e-03  1.2035031622988398e-03  1.4100890759765640e-03  1.2109490328012190e-03  2.4891543081473765e-03  3.9463578412078136e-03  2.4718988603423453e-03  1.4000127892114635e-03  1.5392976004943387e-03  1.3842384340564309e-03  3.2416692416715291e-03  6.1548470606310312e-03  5.4026026605025141e-03  3.2561542768366359e-03  4.5483069064252450e-03  3.7831624749100766e-03  4.4006760085624095e-03  5.3552125446328872e-04  6.1283443838079273e-03  2.5509729195544810e-03  3.4410081476217427e-03  2.5090835971011008e-03  4.3966964918863410e-03  5.0886125233528081e-04  3.1270412433120317e-03  1.2282014600455227e-03  4.5617726780163379e-03  2.5233548424068238e-03  2.0926321805721034e-03  2.4926565319836136e-03  4.3813986785236399e-03  4.6337267879271071e-04  4.5870682481284256e-04  4.8973373056763428e-04  4.3635079203425478e-03  1.4051521363625042e-03  4.8542536305270920e-04  4.8205627425842090e-04  4.6011153456779284e-04  2.5742421684823145e-03  4.7349192441343679e-04  4.4942641957717552e-04  4.8132749977365197e-04  1.2013383876722868e-03  6.3668478768720274e-03  2.5468524536032783e-03  3.8709227742795499e-03  2.5966143517321986e-03  2.1881463510349261e-03  5.1207063037714074e-03  4.6692811250936654e-04  1.1585723032388937e-03  1.3922516896864425e-03  1.2376272328958825e-03  4.6398351750507303e-04  2.9244202701993803e-03  2.4365256458827936e-03  1.2203365828739288e-03  1.2230865771415470e-03  4.6308866952782490e-04  1.1907486227856793e-03  6.4053863692108077e-03  2.5160056425031683e-03  3.3309524111889543e-03  4.2412694743563725e-04  4.7847424723454073e-04  1.0804501164131980e-03  1.1504641689091147e-03  6.5548997223054614e-03  1.9382719485105473e-03  4.6162267819528874e-04  7.6367189114643535e-03  4.4085576539246900e-04  1.0662279338134696e-03  6.6252512412135955e-03  3.2952774504424300e-03  4.0083662999361429e-03  4.3301884449040579e-04  7.7406965188885337e-03  4.5085937355619137e-04  5.1426263967385591e-04  8.7387037674213359e-04  4.9294434247952514e-04  4.1365783943873863e-04  1.9550564917645290e-03  3.1358398910586662e-03  1.3983656783819990e-03  4.3504572688617192e-04  1.4639502358933304e-03  4.4678921281748310e-04  1.4677611963495873e-03  2.5450026982448181e-03  4.4453932985589686e-04  1.0929353804780566e-03  4.0811429979555503e-04  4.0469179214453642e-03  5.1484102100792482e-03  6.6039145464884602e-03  7.4839507508739191e-03  4.0510542964691983e-03  7.0672473400720777e-03  4.1135419839051267e-03  1.3943592191828765e-03  3.1128203944731829e-03  1.9075432597045502e-03  4.3635140813067105e-04  4.6514297769872969e-03  1.6710683605298498e-03  4.2025897478164501e-04  4.9547006750338474e-04  5.7723931663633821e-03  2.2486927285651978e-03  4.0485082628186151e-04  3.9527985703020116e-04  3.8234997724110827e-04  2.6032979546279319e-03  3.2872898694686009e-03  4.0611887245468005e-03  1.9866721504226315e-03  2.2751588011513755e-03  1.0911442022051970e-02  1.1086479005783122e-02  1.1094037292401345e-02  1.1188255930468306e-02  7.8452844103602034e-03  6.3340433732372598e-03  5.0041101577759902e-03  1.9844630885168103e-03  2.4211391504134479e-03  3.2783514993635129e-03  4.0545508183647333e-03  4.2436668288216430e-04  1.0111202497452717e-03  2.5942739637929320e-03  4.0739431545834683e-04  7.3003975618289594e-03  1.7248323679664352e-03  1.0550219327671306e-02  4.0104570480544257e-04  1.2129869533683126e-03  1.0700310019767940e-02  1.0268774818188544e-03  5.3259176230213766e-04  1.0222037423749952e-03  9.3960201065423237e-04  1.9222948595565097e-03  6.0077877866104249e-03  2.5847232129167022e-03  1.1369671519070618e-03  5.1072195959155423e-03  1.4536220675745106e-03  2.1106827109354099e-03  1.8671770178252591e-03  1.2309373212923181e-03  4.6281514362358540e-04  2.6167254950819206e-03  1.7950290868510451e-03  1.3547991462905216e-03  5.0829029316222952e-03  8.9256065210376230e-04  4.8717569331885738e-03  1.0335895122105701e-03  3.5487010995126963e-03  3.2457583944914144e-03  2.5978449836111762e-03  1.8816434353241258e-03  3.4596216964413967e-04  1.9479191581312318e-03  1.9168130330018782e-03  4.5397667188549259e-03  2.3498776344590116e-03  3.8505758556218305e-03  3.9776688020305854e-03  3.4576759997699140e-04  1.9393110866815727e-03  4.2539498161728558e-03  1.1406748055260104e-03  1.9925837080661118e-03  1.3318203566449469e-03  3.8321588559129521e-03  6.6634143882378250e-03  2.5514766398734351e-03  3.8117178428581373e-04  1.6730443183753205e-03  3.0140684000886809e-03  2.6972130760857635e-03  1.5832856010407842e-03  1.7383170754834488e-03  9.2433745743818012e-04  1.8736540096738518e-03  3.0880681258293316e-03  3.9707590947328465e-04  5.2324262160784365e-03  2.0350531791606791e-03  3.3566965417287838e-04  2.8720452665180279e-03  1.3600499281979398e-03  3.6121485765832771e-03  1.5975348239665563e-03  5.4653259369616984e-03  3.5866836386495924e-04  1.8153487686931042e-03  2.8483017610447291e-03  3.8005856458900615e-04  1.1373239396398713e-03  3.6247263823024960e-04  1.5537688055432151e-03  5.5677995132833941e-03  2.8465419719077554e-03  9.6230187536397937e-04  2.6672581951613420e-03  3.4170882153592807e-04  8.2726788331117412e-04  1.0210218792975831e-03  3.6024650085018006e-04  2.8540341376995623e-03  8.3979237247860678e-04  1.7256976040663015e-03  1.5825136685777422e-03  4.7732759706762273e-03  3.4644191290560193e-04  3.1887861150505636e-03  7.1410813167933204e-03  1.6948041676839787e-03  4.3543360531113785e-03  8.4033758844619909e-03  5.0919286038629647e-03  3.0340991016813501e-04  2.0473620817841832e-03  8.2430472295268089e-04  7.3801958097592971e-04  1.0033887405912750e-03  3.1797791783928607e-04  1.0543674598783308e-03  3.5261425500679797e-04  8.3667941464989515e-04  3.3922120443549730e-04  2.9284570765614752e-03  3.2830481040937786e-04  3.1774732256982219e-03  8.5368473843266002e-04  4.8924557747751464e-03  4.9618511981596352e-03  3.2259247663019610e-04  7.6185134929722485e-04  1.0013226866616210e-03  1.9212988114252674e-03  7.8156429440185055e-04  2.0293622306188299e-03  7.5979658511539263e-04  5.0950104555615603e-03  4.6264745774287697e-04  3.2620503639879439e-04  1.2657278621950824e-03  5.0965093265840705e-03  7.9474084263976520e-04  9.9808232960224021e-04  3.3298820800833098e-04  7.9563522782230491e-04  2.9390392340869890e-03  3.2420321429728653e-04  2.5363091123221885e-03  1.6063161136755631e-03  1.6257147298603496e-03  2.8325574853409392e-04  3.2965500242511598e-04  3.1888800579809955e-04  2.4808387785660749e-03  2.8589672856004254e-04  2.8170909605471827e-04  1.1074390072931112e-03  3.3922605398824445e-03  2.6716464924944104e-03  8.3660118420637766e-04  3.1471432095064639e-04  3.6678965587866002e-03  5.5542962639856261e-03  9.4645897898674460e-04  2.1244979404082594e-03  1.5971147189236330e-03  1.9952219100643309e-03  1.0514693520506675e-03  1.5711912105561675e-03  1.6120419304249476e-03  7.7076614846533636e-04  7.2776076142921139e-03  1.2160818195115339e-03  2.4053777579916315e-03  4.2163399104264560e-03  9.6280641488042241e-04  8.6127822364683512e-03  1.0093173920002298e-03  3.8254477854005012e-03  3.2013284435015901e-04  7.6585209200391699e-04  4.6581130045562653e-03  2.0016657534053200e-03  3.1074158233462420e-03  1.7548343354393836e-03  1.6296077359238762e-03  8.4455112911907125e-04  1.0009697684685865e-03  8.6749907198615335e-04  7.5376023360956943e-04  8.4146065151277302e-04  1.5507077660610507e-03  1.2507536090146675e-03  2.1280617231893219e-03  3.1299105726799556e-03  1.3135694804652543e-03  2.1808675538706216e-03  2.1214264495635453e-03  3.9333780592206574e-03  1.5725860816833720e-03  1.2934869699437605e-03  1.2185978391021000e-03  3.8487350793686872e-03  3.1478503276579704e-03  2.0268547070927670e-03  3.5762312395844174e-03  1.9948874250454089e-03  6.0475267117735257e-03  2.2264879050169885e-03  2.5748907960409292e-04  1.3506948978808636e-03  1.9811021206182560e-03  2.2046365475587573e-03  1.2924495376848892e-03  6.9277066402985777e-03  2.3452436149413382e-03  3.4433361388639342e-03  3.5154051744859072e-03  7.2367470384229011e-04  3.1022610167456420e-04  2.9869952323009714e-04  2.2376567800253379e-03  1.9624569435632904e-03  3.3671657703356506e-04  2.5132862297052395e-04  3.0968351202263944e-03  1.4432580134120141e-03  2.6656827136851882e-04  3.0037746123502343e-04  7.1887956981182550e-04  1.1123994100400124e-03  3.6368543182366516e-03  2.0487903525041522e-03  1.2462068485044782e-03  1.7243483747665458e-03  2.1722397707088568e-03  2.4924119184178777e-04  6.4438181706120013e-04  1.0040746335834301e-03  4.7626989587832439e-03  2.8845030594633190e-04  7.0285825236420345e-03  5.8963465833959680e-03  4.1323276229068692e-03  5.3267351008586114e-03  7.0554767422430209e-04  1.2724636963257938e-03  2.7746909873145408e-04  2.6733894133438717e-04  1.5565792240040633e-03  2.8708844995269030e-04  1.0983418681288996e-03  6.9825877962054466e-04  1.2117996796673317e-03  8.7207011616723064e-04  3.8691564577117525e-03  1.1997164488399983e-03  1.4698131501674938e-03  2.3979673808454717e-04  1.5943158311360417e-03  1.2425679063104286e-03  7.8197373791417555e-04  6.9316204209640860e-04  2.5255214352736238e-04  2.7556759128428000e-04  3.5362999886006160e-03  4.6658058875892888e-03  1.2142396769062556e-03  6.0340123009010775e-03  8.0345617537932827e-04  5.0415402274374315e-03  2.4592411088573127e-04  2.6428640418200896e-04  6.6839046740330762e-04  2.6825317614553857e-04  2.5324202096161703e-04  1.0644051333449087e-03  1.6987344969441839e-03  2.0037681515754639e-03  1.0103096840693728e-03  3.6698106030852239e-04  2.7167327151554439e-03  8.6586656624674015e-03  1.1025342301755738e-03  1.0427410582393990e-03  2.1235796891473729e-03  1.2285490627722069e-03  1.7928824478375622e-03  2.5376718299007805e-03  3.0671011950991743e-03  2.7119132685661379e-03  4.7155213863400904e-03  3.4199630035244974e-03  2.2809717705692077e-04  4.2873118005094654e-03  1.5463189964747526e-03  1.9551155903021525e-03  1.5073134120965430e-03  5.0050131094961491e-03  2.6907915182608454e-03  7.3122005246586226e-04  2.4052122093560042e-03  2.3201199426020201e-04  1.2130975241054175e-03  7.1154484209855050e-03  2.9387572283093100e-03  2.8011229123130034e-03  4.9306017812500678e-03  2.2668995053986145e-04  8.8523020552862242e-04  1.0611716808796774e-03  4.4124417947372045e-03  1.1156593094208910e-03  5.7849941955653477e-03  6.6371534983334930e-04  1.5460329929061932e-03  2.5440677007755304e-04  2.9514003553453190e-03  2.3515583463212574e-03  2.8077054957385056e-03  5.3657962844593857e-03  2.2275141786198539e-04  2.3614924652127769e-03  2.2250686561101605e-04  1.3148442769660336e-03  1.1953267055573973e-03  5.7594159608112851e-03  2.7331902683881202e-03  2.7482849856499706e-03  3.6928700666145316e-03  5.4861572148065417e-03  5.6368355646883731e-04  2.2124957790520413e-03  8.5542247299372112e-04  1.5268968736898952e-03  2.1956426824984448e-04  2.4960063692702032e-03  2.2625685930905131e-04  2.9059842391266521e-04  2.5083716884193589e-04  3.6114152244024430e-03  3.6290071256500395e-03  7.2732887986143354e-03  2.1763698590762727e-04  1.4077927718450908e-03  2.3284291618408311e-04  6.3866284233554172e-04  1.3786029346436193e-03  2.2003952162559395e-04  2.8123770690923562e-04  3.7683118988439844e-03  1.3551316706265906e-03  2.1817354185248912e-04  2.3135051580435656e-03  7.2795638418768913e-04  7.4999282509767562e-04  1.5116702581102247e-03  2.8200595451892386e-04  1.5301190994734240e-03  8.8209119130764106e-04  2.6485457312979271e-03  5.9366270458159377e-03  8.8404354822648502e-03  4.4647427154290752e-03  2.8691587199475597e-04  1.5066841078415277e-03  4.7658963844586389e-03  9.8884922053318848e-04  5.0436711159516090e-03  7.2124987867806375e-03  6.4304985642160382e-03  2.5041751890740897e-03  7.2781407444979889e-04  1.1688779339744367e-03  8.0955782012707869e-04  2.6546371781769550e-03  3.9811686201849565e-03  4.0716619477031719e-03  3.9516534691597556e-03  2.0912394002048449e-04  6.7364060824368077e-04  1.0177439080678381e-03  8.3537653163380770e-04  2.8859199649439991e-03  5.1417552530865927e-04  2.2437742109480013e-03  2.8544111473907548e-03  5.1606233580723604e-03  2.1008670601124495e-03  1.3545274446562375e-03  2.3948170180982325e-04  2.9314140304077755e-03  3.1607493822025786e-03  1.2427998639049677e-02  1.2526896313786050e-02  1.2458200500625632e-02  1.0247724182124121e-02  8.9719393661343255e-04  1.1027261595854493e-03  7.2415757078062341e-04  2.9138168599570609e-03  2.1141416106544938e-04  5.5328554574635082e-04  8.6656486823845410e-03  2.2094759933228209e-03  7.0294030117719689e-03  4.0371554627639111e-03  2.2541019953447374e-04  2.2736265315064389e-04  4.4133340101267177e-03  2.9560857924575525e-03  4.2161520055588944e-03  2.9670013115800668e-03  2.0347098819233192e-04  2.7634570340388984e-03  4.4653972728875236e-03  2.5380406514229894e-03  2.3129347345310653e-03  9.1082231237642653e-04  1.7264649572381221e-03  1.0907395394421453e-03  1.4792600888641257e-03  3.2795233118520762e-03  6.5923417285225364e-03  5.4846393750680234e-04  4.4327598949481057e-03  1.0500530305029702e-02  9.0768054712293302e-03  8.7953949147138288e-03  2.0401522426942859e-04  3.3856381142224278e-03  3.7454132492148163e-03  1.2992741483546641e-03  2.9028566212215326e-03  2.0928075435766957e-03  5.0176527188608589e-03  1.0950340572066662e-03  1.0283606607675452e-02  1.7173241167984493e-03  3.0491210096644378e-03  4.2746664138834734e-03  6.7008307148886423e-04  1.5351752817825629e-03  2.2244831813949383e-03  4.7467564087283441e-03  5.5075469756097973e-03  5.8110235950222921e-03  1.4401776758999577e-03  5.8810934056917168e-04  1.5277288988156854e-03  9.2446372919016619e-04  1.0675246432735248e-03  1.7173376361530890e-03  3.0009708023152940e-03  2.1157695852750498e-04  5.2604044716214376e-04  2.7926181817429451e-03  2.9731461730298251e-03  2.3204737912846307e-03  4.7394895990911256e-04  6.1730576228565686e-04  1.6017816663364101e-03  1.9205246268750923e-03  1.9378209778263286e-04  2.0908310608068574e-03  2.3320056981858683e-03  7.5058256739140520e-04  5.6082490052893508e-04  1.9290706257535259e-04  3.5190772187790173e-03  7.2621893606437851e-04  4.4374900680700085e-03  9.3579009083461461e-04  7.5499943831939414e-04  7.6093561116672565e-04  2.3585193574565035e-04  5.8823719180330937e-04  6.8146285039178073e