<?xml version="1.0"?>
<VTKFile type="UnstructuredGrid"  version="0.1"  >
<UnstructuredGrid>
<Piece  NumberOfPoints="2601" NumberOfCells="5000">
<Points>
<DataArray  type="Float64"  NumberOfComponents="3"  format="ascii">0 0 0  0.02 0 0  0.04 0 0  0.06 0 0  0.08 0 0  0.1 0 0  0.12 0 0  0.14 0 0  0.16 0 0  0.18 0 0  0.2 0 0  0.22 0 0  0.24 0 0  0.26 0 0  0.28 0 0  0.3 0 0  0.32 0 0  0.34 0 0  0.36 0 0  0.38 0 0  0.4 0 0  0.42 0 0  0.44 0 0  0.46 0 0  0.48 0 0  0.5 0 0  0.52 0 0  0.54 0 0  0.5600000000000001 0 0  0.58 0 0  0.6 0 0  0.62 0 0  0.64 0 0  0.66 0 0  0.68 0 0  0.7 0 0  0.72 0 0  0.74 0 0  0.76 0 0  0.78 0 0  0.8 0 0  0.82 0 0  0.84 0 0  0.86 0 0  0.88 0 0  0.9 0 0  0.92 0 0  0.9399999999999999 0 0  0.96 0 0  0.98 0 0  1 0 0  0 0.1256 0  0.02 0.1256 0  0.04 0.1256 0  0.06 0.1256 0  0.08 0.1256 0  0.1 0.1256 0  0.12 0.1256 0  0.14 0.1256 0  0.16 0.1256 0  0.18 0.1256 0  0.2 0.1256 0  0.22 0.1256 0  0.24 0.1256 0  0.26 0.1256 0  0.28 0.1256 0  0.3 0.1256 0  0.32 0.1256 0  0.34 0.1256 0  0.36 0.1256 0  0.38 0.1256 0  0.4 0.1256 0  0.42 0.1256 0  0.44 0.1256 0  0.46 0.1256 0  0.48 0.1256 0  0.5 0.1256 0  0.52 0.1256 0  0.54 0.1256 0  0.5600000000000001 0.1256 0  0.58 0.1256 0  0.6 0.1256 0  0.62 0.1256 0  0.64 0.1256 0  0.66 0.1256 0  0.68 0.1256 0  0.7 0.1256 0  0.72 0.1256 0  0.74 0.1256 0  0.76 0.1256 0  0.78 0.1256 0  0.8 0.1256 0  0.82 0.1256 0  0.84 0.1256 0  0.86 0.1256 0  0.88 0.1256 0  0.9 0.1256 0  0.92 0.1256 0  0.9399999999999999 0.1256 0  0.96 0.1256 0  0.98 0.1256 0  1 0.1256 0  0 0.2512 0  0.02 0.2512 0  0.04 0.2512 0  0.06 0.2512 0  0.08 0.2512 0  0.1 0.2512 0  0.12 0.2512 0  0.14 0.2512 0  0.16 0.2512 0  0.18 0.2512 0  0.2 0.2512 0  0.22 0.2512 0  0.24 0.2512 0  0.26 0.2512 0  0.28 0.2512 0  0.3 0.2512 0  0.32 0.2512 0  0.34 0.2512 0  0.36 0.2512 0  0.38 0.2512 0  0.4 0.2512 0  0.42 0.2512 0  0.44 0.2512 0  0.46 0.2512 0  0.48 0.2512 0  0.5 0.2512 0  0.52 0.2512 0  0.54 0.2512 0  0.5600000000000001 0.2512 0  0.58 0.2512 0  0.6 0.2512 0  0.62 0.2512 0  0.64 0.2512 0  0.66 0.2512 0  0.68 0.2512 0  0.7 0.2512 0  0.72 0.2512 0  0.74 0.2512 0  0.76 0.2512 0  0.78 0.2512 0  0.8 0.2512 0  0.82 0.2512 0  0.84 0.2512 0  0.86 0.2512 0  0.88 0.2512 0  0.9 0.2512 0  0.92 0.2512 0  0.9399999999999999 0.2512 0  0.96 0.2512 0  0.98 0.2512 0  1 0.2512 0  0 0.3768 0  0.02 0.3768 0  0.04 0.3768 0  0.06 0.3768 0  0.08 0.3768 0  0.1 0.3768 0  0.12 0.3768 0  0.14 0.3768 0  0.16 0.3768 0  0.18 0.3768 0  0.2 0.3768 0  0.22 0.3768 0  0.24 0.3768 0  0.26 0.3768 0  0.28 0.3768 0  0.3 0.3768 0  0.32 0.3768 0  0.34 0.3768 0  0.36 0.3768 0  0.38 0.3768 0  0.4 0.3768 0  0.42 0.3768 0  0.44 0.3768 0  0.46 0.3768 0  0.48 0.3768 0  0.5 0.3768 0  0.52 0.3768 0  0.54 0.3768 0  0.5600000000000001 0.3768 0  0.58 0.3768 0  0.6 0.3768 0  0.62 0.3768 0  0.64 0.3768 0  0.66 0.3768 0  0.68 0.3768 0  0.7 0.3768 0  0.72 0.3768 0  0.74 0.3768 0  0.76 0.3768 0  0.78 0.3768 0  0.8 0.3768 0  0.82 0.3768 0  0.84 0.3768 0  0.86 0.3768 0  0.88 0.3768 0  0.9 0.3768 0  0.92 0.3768 0  0.9399999999999999 0.3768 0  0.96 0.3768 0  0.98 0.3768 0  1 0.3768 0  0 0.5024000000000001 0  0.02 0.5024000000000001 0  0.04 0.5024000000000001 0  0.06 0.5024000000000001 0  0.08 0.5024000000000001 0  0.1 0.5024000000000001 0  0.12 0.5024000000000001 0  0.14 0.5024000000000001 0  0.16 0.5024000000000001 0  0.18 0.5024000000000001 0  0.2 0.5024000000000001 0  0.22 0.5024000000000001 0  0.24 0.5024000000000001 0  0.26 0.5024000000000001 0  0.28 0.5024000000000001 0  0.3 0.5024000000000001 0  0.32 0.5024000000000001 0  0.34 0.5024000000000001 0  0.36 0.5024000000000001 0  0.38 0.5024000000000001 0  0.4 0.5024000000000001 0  0.42 0.5024000000000001 0  0.44 0.5024000000000001 0  0.46 0.5024000000000001 0  0.48 0.5024000000000001 0  0.5 0.5024000000000001 0  0.52 0.5024000000000001 0  0.54 0.5024000000000001 0  0.5600000000000001 0.5024000000000001 0  0.58 0.5024000000000001 0  0.6 0.5024000000000001 0  0.62 0.5024000000000001 0  0.64 0.5024000000000001 0  0.66 0.5024000000000001 0  0.68 0.5024000000000001 0  0.7 0.5024000000000001 0  0.72 0.5024000000000001 0  0.74 0.5024000000000001 0  0.76 0.5024000000000001 0  0.78 0.5024000000000001 0  0.8 0.5024000000000001 0  0.82 0.5024000000000001 0  0.84 0.5024000000000001 0  0.86 0.5024000000000001 0  0.88 0.5024000000000001 0  0.9 0.5024000000000001 0  0.92 0.5024000000000001 0  0.9399999999999999 0.5024000000000001 0  0.96 0.5024000000000001 0  0.98 0.5024000000000001 0  1 0.5024000000000001 0  0 0.628 0  0.02 0.628 0  0.04 0.628 0  0.06 0.628 0  0.08 0.628 0  0.1 0.628 0  0.12 0.628 0  0.14 0.628 0  0.16 0.628 0  0.18 0.628 0  0.2 0.628 0  0.22 0.628 0  0.24 0.628 0  0.26 0.628 0  0.28 0.628 0  0.3 0.628 0  0.32 0.628 0  0.34 0.628 0  0.36 0.628 0  0.38 0.628 0  0.4 0.628 0  0.42 0.628 0  0.44 0.628 0  0.46 0.628 0  0.48 0.628 0  0.5 0.628 0  0.52 0.628 0  0.54 0.628 0  0.5600000000000001 0.628 0  0.58 0.628 0  0.6 0.628 0  0.62 0.628 0  0.64 0.628 0  0.66 0.628 0  0.68 0.628 0  0.7 0.628 0  0.72 0.628 0  0.74 0.628 0  0.76 0.628 0  0.78 0.628 0  0.8 0.628 0  0.82 0.628 0  0.84 0.628 0  0.86 0.628 0  0.88 0.628 0  0.9 0.628 0  0.92 0.628 0  0.9399999999999999 0.628 0  0.96 0.628 0  0.98 0.628 0  1 0.628 0  0 0.7536 0  0.02 0.7536 0  0.04 0.7536 0  0.06 0.7536 0  0.08 0.7536 0  0.1 0.7536 0  0.12 0.7536 0  0.14 0.7536 0  0.16 0.7536 0  0.18 0.7536 0  0.2 0.7536 0  0.22 0.7536 0  0.24 0.7536 0  0.26 0.7536 0  0.28 0.7536 0  0.3 0.7536 0  0.32 0.7536 0  0.34 0.7536 0  0.36 0.7536 0  0.38 0.7536 0  0.4 0.7536 0  0.42 0.7536 0  0.44 0.7536 0  0.46 0.7536 0  0.48 0.7536 0  0.5 0.7536 0  0.52 0.7536 0  0.54 0.7536 0  0.5600000000000001 0.7536 0  0.58 0.7536 0  0.6 0.7536 0  0.62 0.7536 0  0.64 0.7536 0  0.66 0.7536 0  0.68 0.7536 0  0.7 0.7536 0  0.72 0.7536 0  0.74 0.7536 0  0.76 0.7536 0  0.78 0.7536 0  0.8 0.7536 0  0.82 0.7536 0  0.84 0.7536 0  0.86 0.7536 0  0.88 0.7536 0  0.9 0.7536 0  0.92 0.7536 0  0.9399999999999999 0.7536 0  0.96 0.7536 0  0.98 0.7536 0  1 0.7536 0  0 0.8792 0  0.02 0.8792 0  0.04 0.8792 0  0.06 0.8792 0  0.08 0.8792 0  0.1 0.8792 0  0.12 0.8792 0  0.14 0.8792 0  0.16 0.8792 0  0.18 0.8792 0  0.2 0.8792 0  0.22 0.8792 0  0.24 0.8792 0  0.26 0.8792 0  0.28 0.8792 0  0.3 0.8792 0  0.32 0.8792 0  0.34 0.8792 0  0.36 0.8792 0  0.38 0.8792 0  0.4 0.8792 0  0.42 0.8792 0  0.44 0.8792 0  0.46 0.8792 0  0.48 0.8792 0  0.5 0.8792 0  0.52 0.8792 0  0.54 0.8792 0  0.5600000000000001 0.8792 0  0.58 0.8792 0  0.6 0.8792 0  0.62 0.8792 0  0.64 0.8792 0  0.66 0.8792 0  0.68 0.8792 0  0.7 0.8792 0  0.72 0.8792 0  0.74 0.8792 0  0.76 0.8792 0  0.78 0.8792 0  0.8 0.8792 0  0.82 0.8792 0  0.84 0.8792 0  0.86 0.8792 0  0.88 0.8792 0  0.9 0.8792 0  0.92 0.8792 0  0.9399999999999999 0.8792 0  0.96 0.8792 0  0.98 0.8792 0  1 0.8792 0  0 1.0048 0  0.02 1.0048 0  0.04 1.0048 0  0.06 1.0048 0  0.08 1.0048 0  0.1 1.0048 0  0.12 1.0048 0  0.14 1.0048 0  0.16 1.0048 0  0.18 1.0048 0  0.2 1.0048 0  0.22 1.0048 0  0.24 1.0048 0  0.26 1.0048 0  0.28 1.0048 0  0.3 1.0048 0  0.32 1.0048 0  0.34 1.0048 0  0.36 1.0048 0  0.38 1.0048 0  0.4 1.0048 0  0.42 1.0048 0  0.44 1.0048 0  0.46 1.0048 0  0.48 1.0048 0  0.5 1.0048 0  0.52 1.0048 0  0.54 1.0048 0  0.5600000000000001 1.0048 0  0.58 1.0048 0  0.6 1.0048 0  0.62 1.0048 0  0.64 1.0048 0  0.66 1.0048 0  0.68 1.0048 0  0.7 1.0048 0  0.72 1.0048 0  0.74 1.0048 0  0.76 1.0048 0  0.78 1.0048 0  0.8 1.0048 0  0.82 1.0048 0  0.84 1.0048 0  0.86 1.0048 0  0.88 1.0048 0  0.9 1.0048 0  0.92 1.0048 0  0.9399999999999999 1.0048 0  0.96 1.0048 0  0.98 1.0048 0  1 1.0048 0  0 1.1304 0  0.02 1.1304 0  0.04 1.1304 0  0.06 1.1304 0  0.08 1.1304 0  0.1 1.1304 0  0.12 1.1304 0  0.14 1.1304 0  0.16 1.1304 0  0.18 1.1304 0  0.2 1.1304 0  0.22 1.1304 0  0.24 1.1304 0  0.26 1.1304 0  0.28 1.1304 0  0.3 1.1304 0  0.32 1.1304 0  0.34 1.1304 0  0.36 1.1304 0  0.38 1.1304 0  0.4 1.1304 0  0.42 1.1304 0  0.44 1.1304 0  0.46 1.1304 0  0.48 1.1304 0  0.5 1.1304 0  0.52 1.1304 0  0.54 1.1304 0  0.5600000000000001 1.1304 0  0.58 1.1304 0  0.6 1.1304 0  0.62 1.1304 0  0.64 1.1304 0  0.66 1.1304 0  0.68 1.1304 0  0.7 1.1304 0  0.72 1.1304 0  0.74 1.1304 0  0.76 1.1304 0  0.78 1.1304 0  0.8 1.1304 0  0.82 1.1304 0  0.84 1.1304 0  0.86 1.1304 0  0.88 1.1304 0  0.9 1.1304 0  0.92 1.1304 0  0.9399999999999999 1.1304 0  0.96 1.1304 0  0.98 1.1304 0  1 1.1304 0  0 1.256 0  0.02 1.256 0  0.04 1.256 0  0.06 1.256 0  0.08 1.256 0  0.1 1.256 0  0.12 1.256 0  0.14 1.256 0  0.16 1.256 0  0.18 1.256 0  0.2 1.256 0  0.22 1.256 0  0.24 1.256 0  0.26 1.256 0  0.28 1.256 0  0.3 1.256 0  0.32 1.256 0  0.34 1.256 0  0.36 1.256 0  0.38 1.256 0  0.4 1.256 0  0.42 1.256 0  0.44 1.256 0  0.46 1.256 0  0.48 1.256 0  0.5 1.256 0  0.52 1.256 0  0.54 1.256 0  0.5600000000000001 1.256 0  0.58 1.256 0  0.6 1.256 0  0.62 1.256 0  0.64 1.256 0  0.66 1.256 0  0.68 1.256 0  0.7 1.256 0  0.72 1.256 0  0.74 1.256 0  0.76 1.256 0  0.78 1.256 0  0.8 1.256 0  0.82 1.256 0  0.84 1.256 0  0.86 1.256 0  0.88 1.256 0  0.9 1.256 0  0.92 1.256 0  0.9399999999999999 1.256 0  0.96 1.256 0  0.98 1.256 0  1 1.256 0  0 1.3816 0  0.02 1.3816 0  0.04 1.3816 0  0.06 1.3816 0  0.08 1.3816 0  0.1 1.3816 0  0.12 1.3816 0  0.14 1.3816 0  0.16 1.3816 0  0.18 1.3816 0  0.2 1.3816 0  0.22 1.3816 0  0.24 1.3816 0  0.26 1.3816 0  0.28 1.3816 0  0.3 1.3816 0  0.32 1.3816 0  0.34 1.3816 0  0.36 1.3816 0  0.38 1.3816 0  0.4 1.3816 0  0.42 1.3816 0  0.44 1.3816 0  0.46 1.3816 0  0.48 1.3816 0  0.5 1.3816 0  0.52 1.3816 0  0.54 1.3816 0  0.5600000000000001 1.3816 0  0.58 1.3816 0  0.6 1.3816 0  0.62 1.3816 0  0.64 1.3816 0  0.66 1.3816 0  0.68 1.3816 0  0.7 1.3816 0  0.72 1.3816 0  0.74 1.3816 0  0.76 1.3816 0  0.78 1.3816 0  0.8 1.3816 0  0.82 1.3816 0  0.84 1.3816 0  0.86 1.3816 0  0.88 1.3816 0  0.9 1.3816 0  0.92 1.3816 0  0.9399999999999999 1.3816 0  0.96 1.3816 0  0.98 1.3816 0  1 1.3816 0  0 1.5072 0  0.02 1.5072 0  0.04 1.5072 0  0.06 1.5072 0  0.08 1.5072 0  0.1 1.5072 0  0.12 1.5072 0  0.14 1.5072 0  0.16 1.5072 0  0.18 1.5072 0  0.2 1.5072 0  0.22 1.5072 0  0.24 1.5072 0 
[...]
<PointData  Scalars="f_12"> 
<DataArray  type="Float64"  Name="f_12"  format="ascii">1.3296357648500822e-02  1.3163024331706321e-02  1.2851094163147017e-02  1.2347552109861911e-02  1.1637885771759183e-02  1.0738662304472856e-02  9.8946504067036305e-03  9.1687222533635617e-03  8.5528438600241119e-03  7.9979437467869539e-03  7.5117066641644907e-03  7.0626972170512370e-03  6.6608282474520612e-03  6.2838987278114444e-03  5.9413526070331221e-03  5.6166341785167098e-03  5.3180960794635673e-03  5.0329246052911985e-03  4.7683439200924384e-03  4.5141555091254889e-03  4.2765785911145580e-03  4.0473141586964056e-03  3.8317288104955725e-03  3.6229453291889086e-03  3.4256186296061711e-03  3.2339621020304062e-03  3.0520386177790592e-03  2.8749154904257209e-03  2.7061618954304307e-03  2.5415255863732162e-03  2.3841619738550913e-03  2.2303693217441529e-03  2.0829541104032171e-03  1.9386659673804182e-03  1.8000151679293652e-03  1.6641257934417156e-03  1.5332549984557161e-03  1.4048407798620184e-03  1.2809225840784534e-03  1.1592040406287968e-03  1.0415361743038583e-03  9.2584927204978815e-04  8.1383030252976240e-04  7.0360438992584946e-04  5.9671482755609790e-04  4.9145530809494974e-04  3.8924257008719028e-04  2.8851693567517336e-04  1.9058300480879824e-04  9.4009162483212419e-05  0.0000000000000000e+00  1.3296357650339057e-02  1.3163024307577143e-02  1.2852937023937191e-02  1.2343536323392091e-02  1.1644169297569453e-02  1.0739162518809867e-02  9.8859251616048791e-03  9.1755569084101211e-03  8.5467025024760796e-03  8.0033372276134915e-03  7.5069399211383156e-03  7.0669178237368893e-03  6.6570770578137988e-03  6.2872452749018664e-03  5.9383550492657419e-03  5.6193298776486909e-03  5.3156622836952536e-03  5.0351303288370623e-03  4.7663375661097353e-03  4.5159868987137922e-03  4.2749013501843123e-03  4.0488550663158127e-03  3.8303089359361378e-03  3.6242573663801715e-03  3.4244030191374827e-03  3.2350912155654412e-03  3.0509873775390272e-03  2.8758964660834403e-03  2.7052446173913523e-03  2.5423851556762756e-03  2.3833551731393811e-03  2.2311283401473788e-03  2.0822394582327990e-03  1.9393409877823116e-03  1.7993782954542840e-03  1.6647302723280246e-03  1.5326847542727693e-03  1.4053861165396252e-03  1.2804107249876962e-03  1.1597006604993488e-03  1.0410775767307802e-03  9.2630802915195899e-04  8.1342392602812372e-04  7.0403869886670337e-04  5.9636587342884722e-04  4.9188465037641380e-04  3.8896659985953344e-04  2.8897276561604585e-04  1.9041327361979843e-04  9.4544829509189996e-05  0.0000000000000000e+00  1.3296357648500822e-02  1.3163024331706323e-02  1.2851094163147014e-02  1.2347552109861914e-02  1.1637885771759187e-02  1.0738662304472858e-02  9.8946504067036357e-03  9.1687222533635617e-03  8.5528438600241067e-03  7.9979437467869487e-03  7.5117066641644838e-03  7.0626972170512326e-03  6.6608282474520551e-03  6.2838987278114366e-03  5.9413526070331117e-03  5.6166341785166985e-03  5.3180960794635525e-03  5.0329246052911777e-03  4.7683439200924072e-03  4.5141555091254438e-03  4.2765785911144912e-03  4.0473141586963076e-03  3.8317288104954281e-03  3.6229453291886943e-03  3.4256186296060241e-03  3.2339621020303008e-03  3.0520386177789820e-03  2.8749154904256628e-03  2.7061618954303860e-03  2.5415255863731798e-03  2.3841619738550622e-03  2.2303693217441290e-03  2.0829541104031984e-03  1.9386659673804032e-03  1.8000151679293521e-03  1.6641257934417049e-03  1.5332549984557065e-03  1.4048407798620093e-03  1.2809225840784452e-03  1.1592040406287897e-03  1.0415361743038522e-03  9.2584927204978284e-04  8.1383030252975752e-04  7.0360438992584501e-04  5.9671482755609400e-04  4.9145530809494649e-04  3.8924257008718762e-04  2.8851693567517135e-04  1.9058300480879694e-04  9.4009162483211768e-05  0.0000000000000000e+00  1.3296357650339053e-02  1.3163024307577148e-02  1.2852937023937189e-02  1.2343536323392097e-02  1.1644169297569456e-02  1.0739162518809865e-02  9.8859251616048825e-03  9.1755569084101211e-03  8.5467025024760744e-03  8.0033372276134829e-03  7.5069399211383043e-03  7.0669178237368815e-03  6.6570770578137902e-03  6.2872452749018542e-03  5.9383550492657271e-03  5.6193298776486735e-03  5.3156622836952327e-03  5.0351303288370354e-03  4.7663375661096980e-03  4.5159868987137437e-03  4.2749013501842533e-03  4.0488550663157425e-03  3.8303089359360541e-03  3.6242573663800817e-03  3.4244030191373969e-03  3.2350912155653675e-03  3.0509873775389660e-03  2.8758964660833873e-03  2.7052446173913072e-03  2.5423851556762357e-03  2.3833551731393455e-03  2.2311283401473480e-03  2.0822394582327725e-03  1.9393409877822884e-03  1.7993782954542641e-03  1.6647302723280068e-03  1.5326847542727537e-03  1.4053861165396111e-03  1.2804107249876839e-03  1.1597006604993374e-03  1.0410775767307702e-03  9.2630802915195075e-04  8.1342392602811711e-04  7.0403869886669806e-04  5.9636587342884256e-04  4.9188465037641000e-04  3.8896659985953046e-04  2.8897276561604368e-04  1.9041327361979705e-04  9.4544829509189346e-05  0.0000000000000000e+00  1.3296357648500810e-02  1.3163024331706335e-02  1.2851094163147019e-02  1.2347552109861923e-02  1.1637885771759188e-02  1.0738662304472856e-02  9.8946504067036339e-03  9.1687222533635582e-03  8.5528438600241050e-03  7.9979437467869400e-03  7.5117066641644742e-03  7.0626972170512239e-03  6.6608282474520438e-03  6.2838987278114218e-03  5.9413526070330944e-03  5.6166341785166786e-03  5.3180960794635282e-03  5.0329246052911464e-03  4.7683439200923708e-03  4.5141555091253996e-03  4.2765785911144443e-03  4.0473141586962564e-03  3.8317288104953739e-03  3.6229453291886371e-03  3.4256186296059690e-03  3.2339621020302501e-03  3.0520386177789356e-03  2.8749154904256207e-03  2.7061618954303478e-03  2.5415255863731469e-03  2.3841619738550323e-03  2.2303693217441017e-03  2.0829541104031724e-03  1.9386659673803798e-03  1.8000151679293320e-03  1.6641257934416863e-03  1.5332549984556900e-03  1.4048407798619947e-03  1.2809225840784324e-03  1.1592040406287784e-03  1.0415361743038424e-03  9.2584927204977482e-04  8.1383030252975090e-04  7.0360438992583970e-04  5.9671482755608966e-04  4.9145530809494302e-04  3.8924257008718502e-04  2.8851693567516956e-04  1.9058300480879572e-04  9.4009162483211158e-05  0.0000000000000000e+00  1.3296357650339036e-02  1.3163024307577164e-02  1.2852937023937199e-02  1.2343536323392107e-02  1.1644169297569460e-02  1.0739162518809865e-02  9.8859251616048791e-03  9.1755569084101159e-03  8.5467025024760692e-03  8.0033372276134759e-03  7.5069399211382948e-03  7.0669178237368719e-03  6.6570770578137789e-03  6.2872452749018395e-03  5.9383550492657115e-03  5.6193298776486536e-03  5.3156622836952111e-03  5.0351303288370102e-03  4.7663375661096703e-03  4.5159868987137133e-03  4.2749013501842213e-03  4.0488550663157060e-03  3.8303089359360155e-03  3.6242573663800401e-03  3.4244030191373544e-03  3.2350912155653250e-03  3.0509873775389235e-03  2.8758964660833496e-03  2.7052446173912721e-03  2.5423851556762049e-03  2.3833551731393186e-03  2.2311283401473241e-03  2.0822394582327526e-03  1.9393409877822706e-03  1.7993782954542480e-03  1.6647302723279917e-03  1.5326847542727401e-03  1.4053861165395992e-03  1.2804107249876732e-03  1.1597006604993282e-03  1.0410775767307622e-03  9.2630802915194359e-04  8.1342392602811061e-04  7.0403869886669220e-04  5.9636587342883757e-04  4.9188465037640578e-04  3.8896659985952704e-04  2.8897276561604097e-04  1.9041327361979518e-04  9.4544829509188397e-05  0.0000000000000000e+00  1.3296357648500793e-02  1.3163024331706352e-02  1.2851094163147029e-02  1.2347552109861925e-02  1.1637885771759190e-02  1.0738662304472856e-02  9.8946504067036322e-03  9.1687222533635565e-03  8.5528438600240998e-03  7.9979437467869348e-03  7.5117066641644664e-03  7.0626972170512109e-03  6.6608282474520317e-03  6.2838987278114062e-03  5.9413526070330788e-03  5.6166341785166612e-03  5.3180960794635100e-03  5.0329246052911256e-03  4.7683439200923491e-03  4.5141555091253770e-03  4.2765785911144183e-03  4.0473141586962295e-03  3.8317288104953453e-03  3.6229453291886072e-03  3.4256186296059391e-03  3.2339621020302202e-03  3.0520386177789070e-03  2.8749154904255930e-03  2.7061618954303222e-03  2.5415255863731226e-03  2.3841619738550106e-03  2.2303693217440826e-03  2.0829541104031555e-03  1.9386659673803646e-03  1.8000151679293177e-03  1.6641257934416728e-03  1.5332549984556775e-03  1.4048407798619832e-03  1.2809225840784218e-03  1.1592040406287688e-03  1.0415361743038340e-03  9.2584927204976755e-04  8.1383030252974462e-04  7.0360438992583417e-04  5.9671482755608522e-04  4.9145530809493933e-04  3.8924257008718209e-04  2.8851693567516739e-04  1.9058300480879431e-04  9.4009162483210494e-05  0.0000000000000000e+00  1.3296357650339020e-02  1.3163024307577185e-02  1.2852937023937212e-02  1.2343536323392107e-02  1.1644169297569461e-02  1.0739162518809868e-02  9.8859251616048808e-03  9.1755569084101176e-03  8.5467025024760692e-03  8.0033372276134742e-03  7.5069399211382922e-03  7.0669178237368633e-03  6.6570770578137659e-03  6.2872452749018265e-03  5.9383550492656976e-03  5.6193298776486414e-03  5.3156622836951981e-03  5.0351303288369946e-03  4.7663375661096520e-03  4.5159868987136925e-03  4.2749013501841952e-03  4.0488550663156800e-03  3.8303089359359934e-03  3.6242573663800215e-03  3.4244030191373357e-03  3.2350912155653072e-03  3.0509873775389071e-03  2.8758964660833331e-03  2.7052446173912569e-03  2.5423851556761910e-03  2.3833551731393056e-03  2.2311283401473111e-03  2.0822394582327383e-03  1.9393409877822576e-03  1.7993782954542352e-03  1.6647302723279802e-03  1.5326847542727294e-03  1.4053861165395894e-03  1.2804107249876641e-03  1.1597006604993204e-03  1.0410775767307546e-03  9.2630802915193665e-04  8.1342392602810453e-04  7.0403869886668689e-04  5.9636587342883334e-04  4.9188465037640252e-04  3.8896659985952477e-04  2.8897276561603945e-04  1.9041327361979412e-04  9.4544829509187882e-05  0.0000000000000000e+00  1.3296357648500776e-02  1.3163024331706371e-02  1.2851094163147036e-02  1.2347552109861930e-02  1.1637885771759197e-02  1.0738662304472861e-02  9.8946504067036322e-03  9.1687222533635565e-03  8.5528438600240998e-03  7.9979437467869348e-03  7.5117066641644629e-03  7.0626972170512075e-03  6.6608282474520256e-03  6.2838987278114010e-03  5.9413526070330718e-03  5.6166341785166534e-03  5.3180960794634987e-03  5.0329246052911152e-03  4.7683439200923369e-03  4.5141555091253649e-03  4.2765785911144044e-03  4.0473141586962157e-03  3.8317288104953336e-03  3.6229453291885981e-03  3.4256186296059308e-03  3.2339621020302128e-03  3.0520386177788979e-03  2.8749154904255843e-03  2.7061618954303131e-03  2.5415255863731139e-03  2.3841619738550006e-03  2.2303693217440726e-03  2.0829541104031447e-03  1.9386659673803542e-03  1.8000151679293075e-03  1.6641257934416642e-03  1.5332549984556701e-03  1.4048407798619769e-03  1.2809225840784166e-03  1.1592040406287645e-03  1.0415361743038299e-03  9.2584927204976354e-04  8.1383030252974125e-04  7.0360438992583135e-04  5.9671482755608283e-04  4.9145530809493760e-04  3.8924257008718057e-04  2.8851693567516615e-04  1.9058300480879353e-04  9.4009162483210074e-05  0.0000000000000000e+00  1.3296357650339000e-02  1.3163024307577195e-02  1.2852937023937213e-02  1.2343536323392112e-02  1.1644169297569468e-02  1.0739162518809874e-02  9.8859251616048825e-03  9.1755569084101176e-03  8.5467025024760692e-03  8.0033372276134725e-03  7.5069399211382878e-03  7.0669178237368589e-03  6.6570770578137607e-03  6.2872452749018213e-03  5.9383550492656924e-03  5.6193298776486336e-03  5.3156622836951868e-03  5.0351303288369833e-03  4.7663375661096416e-03  4.5159868987136847e-03  4.2749013501841892e-03  4.0488550663156765e-03  3.8303089359359886e-03  3.6242573663800163e-03  3.4244030191373301e-03  3.2350912155653007e-03  3.0509873775388992e-03  2.8758964660833253e-03  2.7052446173912491e-03  2.5423851556761819e-03  2.3833551731392961e-03  2.2311283401473016e-03  2.0822394582327300e-03  1.9393409877822500e-03  1.7993782954542289e-03  1.6647302723279741e-03  1.5326847542727242e-03  1.4053861165395846e-03  1.2804107249876600e-03  1.1597006604993165e-03  1.0410775767307515e-03  9.2630802915193427e-04  8.1342392602810258e-04  7.0403869886668526e-04  5.9636587342883182e-04  4.9188465037640122e-04  3.8896659985952363e-04  2.8897276561603842e-04  1.9041327361979350e-04  9.4544829509187570e-05  0.0000000000000000e+00  1.3296357648500750e-02  1.3163024331706377e-02  1.2851094163147045e-02  1.2347552109861932e-02  1.1637885771759202e-02  1.0738662304472867e-02  9.8946504067036374e-03  9.1687222533635548e-03  8.5528438600240998e-03  7.9979437467869331e-03  7.5117066641644629e-03  7.0626972170512031e-03  6.6608282474520195e-03  6.2838987278113949e-03  5.9413526070330666e-03  5.6166341785166482e-03  5.3180960794634918e-03  5.0329246052911083e-03  4.7683439200923309e-03  4.5141555091253579e-03  4.2765785911143992e-03  4.0473141586962096e-03  3.8317288104953271e-03  3.6229453291885920e-03  3.4256186296059235e-03  3.2339621020302045e-03  3.0520386177788910e-03  2.8749154904255786e-03  2.7061618954303066e-03  2.5415255863731074e-03  2.3841619738549954e-03  2.2303693217440679e-03  2.0829541104031416e-03  1.9386659673803518e-03  1.8000151679293047e-03  1.6641257934416614e-03  1.5332549984556677e-03  1.4048407798619743e-03  1.2809225840784142e-03  1.1592040406287621e-03  1.0415361743038279e-03  9.2584927204976191e-04  8.1383030252973952e-04  7.0360438992583005e-04  5.9671482755608153e-04  4.9145530809493652e-04  3.8924257008717970e-04  2.8851693567516549e-04  1.9058300480879304e-04  9.4009162483209844e-05  0.0000000000000000e+00  1.3296357650338968e-02  1.3163024307577206e-02  1.2852937023937226e-02  1.2343536323392116e-02  1.1644169297569474e-02  1.0739162518809877e-02  9.8859251616048843e-03  9.1755569084101193e-03  8.5467025024760692e-03  8.0033372276134725e-03  7.5069399211382904e-03  7.0669178237368581e-03  6.6570770578137616e-03  6.2872452749018204e-03  5.9383550492656889e-03  5.6193298776486310e-03  5.3156622836951842e-03  5.0351303288369807e-03  4.7663375661096382e-03  4.5159868987136786e-03  4.2749013501841822e-03  4.0488550663156679e-03  3.8303089359359816e-03  3.6242573663800084e-03  3.4244030191373218e-03  3.2350912155652946e-03  3.0509873775388949e-03  2.8758964660833219e-03  2.7052446173912465e-03  2.5423851556761802e-03  2.3833551731392952e-03  2.2311283401473020e-03  2.0822394582327305e-03  1.9393409877822504e-03  1.7993782954542291e-03  1.6647302723279745e-03  1.5326847542727244e-03  1.4053861165395848e-03  1.2804107249876600e-03  1.1597006604993161e-03  1.0410775767307505e-03  9.2630802915193297e-04  8.1342392602810117e-04  7.0403869886668418e-04  5.9636587342883096e-04  4.9188465037640057e-04  3.8896659985952330e-04  2.8897276561603831e-04  1.9041327361979336e-04  9.4544829509187489e-05  0.0000000000000000e+00  1.3296357648500718e-02  1.3163024331706389e-02  1.2851094163147052e-02  1.2347552109861944e-02  1.1637885771759204e-02  1.0738662304472865e-02  9.8946504067036339e-03  9.1687222533635565e-03  8.5528438600240998e-03  7.9979437467869331e-03  7.5117066641644603e-03  7.0626972170512049e-03  6.6608282474520213e-03  6.2838987278113949e-03  5.9413526070330657e-03  5.6166341785166456e-03  5.3180960794634901e-03  5.0329246052911048e-03  4.7683439200923274e-03  4.5141555091253553e-03  4.2765785911143958e-03  4.0473141586962079e-03  3.8317288104953253e-03  3.6229453291885903e-03  3.4256186296059230e-03  3.2339621020302054e-03  3.0520386177788918e-03  2.8749154904255786e-03  2.7061618954303088e-03  2.5415255863731096e-03  2.3841619738549972e-03  2.2303693217440696e-03  2.0829541104031421e-03  1.9386659673803527e-03  1.8000151679293060e-03  1.6641257934416624e-03  1.5332549984556686e-03  1.4048407798619752e-03  1.2809225840784149e-03  1.1592040406287630e-03  1.0415361743038283e-03  9.2584927204976191e-04  8.1383030252973985e-04  7.0360438992582994e-04  5.9671482755608164e-04  4.9145530809493641e-04  3.8924257008717970e-04  2.8851693567516555e-04  1.9058300480879309e-04  9.4009162483209857e-05  0.0000000000000000e+00  1.3296357650338934e-02  1.3163024307577211e-02  1.2852937023937229e-02  1.2343536323392128e-02  1.1644169297569475e-02  1.0739162518809877e-02  9.8859251616048860e-03  9.1755569084101193e-03  8.5467025024760692e-03  8.0033372276134707e-03  7.5069399211382878e-03  7.0669178237368581e-03  6.6570770578137607e-03  6.2872452749018204e-03  5.9383550492656898e-03  5.6193298776486293e-03  5.3156622836951807e-03  5.0351303288369773e-03  4.7663375661096364e-03  4.5159868987136795e-03  4.2749013501841857e-03  4.0488550663156731e-03  3.8303089359359855e-03  3.6242573663800137e-03  3.4244030191373270e-03  3.2350912155652985e-03  3.0509873775388984e-03  2.8758964660833262e-03  2.7052446173912508e-03  2.5423851556761836e-03  2.3833551731392982e-03  2.2311283401473046e-03  2.0822394582327331e-03  1.9393409877822524e-03  1.7993782954542311e-03  1.6647302723279763e-03  1.5326847542727257e-03  1.4053861165395859e-03  1.2804107249876609e-03  1.1597006604993172e-03  1.0410775767307522e-03  9.2630802915193503e-04  8.1342392602810323e-04  7.0403869886668570e-04  5.9636587342883237e-04  4.9188465037640155e-04  3.8896659985952390e-04  2.8897276561603858e-04  1.9041327361979355e-04  9.4544829509187598e-05  0.0000000000000000e+00  1.3296357648500680e-02  1.3163024331706387e-02  1.2851094163147055e-02  1.2347552109861951e-02  1.1637885771759211e-02  1.0738662304472868e-02  9.8946504067036391e-03  9.1687222533635600e-03  8.5528438600240980e-03  7.9979437467869296e-03  7.5117066641644577e-03  7.0626972170511988e-03  6.6608282474520195e-03  6.2838987278113993e-03  5.9413526070330683e-03  5.6166341785166473e-03  5.3180960794634909e-03  5.0329246052911074e-03  4.7683439200923309e-03  4.5141555091253597e-03  4.2765785911144010e-03  4.0473141586962148e-03  3.8317288104953314e-03  3.6229453291885972e-03  3.4256186296059287e-03  3.2339621020302097e-03  3.0520386177788970e-03  2.8749154904255847e-03  2.7061618954303136e-03  2.5415255863731156e-03  2.3841619738550032e-03  2.2303693217440757e-03  2.0829541104031481e-03  1.9386659673803572e-03  1.8000151679293101e-03  1.6641257934416670e-03  1.5332549984556723e-03  1.4048407798619785e-03  1.2809225840784175e-03  1.1592040406287652e-03  1.0415361743038301e-03  9.2584927204976322e-04  8.1383030252974071e-04  7.0360438992583081e-04  5.9671482755608229e-04  4.9145530809493695e-04  3.8924257008718019e-04  2.8851693567516593e-04  1.9058300480879334e-04  9.4009162483209993e-05  0.0000000000000000e+00  1.3296357650338892e-02  1.3163024307577207e-02  1.2852937023937229e-02  1.2343536323392136e-02  1.1644169297569481e-02  1.0739162518809880e-02  9.8859251616048860e-03  9.1755569084101193e-03  8.5467025024760623e-03  8.0033372276134621e-03  7.5069399211382800e-03  7.0669178237368529e-03  6.6570770578137589e-03  6.2872452749018213e-03  5.9383550492656907e-03  5.6193298776486310e-03  5.3156622836951842e-03  5.0351303288369816e-03  4.7663375661096434e-03  4.5159868987136847e-03  4.2749013501841900e-03  4.0488550663156783e-03  3.8303089359359912e-03  3.6242573663800171e-03  3.4244030191373314e-03  3.2350912155653029e-03  3.0509873775389031e-03  2.8758964660833301e-03  2.7052446173912548e-03  2.5423851556761888e-03  2.3833551731393039e-03  2.2311283401473098e-03  2.0822394582327374e-03  1.9393409877822561e-03  1.7993782954542343e-03  1.6647302723279804e-03  1.5326847542727303e-03  1.4053861165395900e-03  1.2804107249876646e-03  1.1597006604993200e-03  1.0410775767307546e-03  9.2630802915193665e-04  8.1342392602810432e-04  7.0403869886668678e-04  5.9636587342883345e-04  4.9188465037640241e-04  3.8896659985952455e-04  2.8897276561603923e-04  1.9041327361979401e-04  9.4544829509187828e-05  0.0000000000000000e+00  1.3296357648500637e-02  1.3163024331706382e-02  1.2851094163147052e-02  1.2347552109861961e-02  1.1637885771759216e-02  1.0738662304472870e-02  9.8946504067036374e-03  9.1687222533635565e-03  8.5528438600240928e-03  7.9979437467869209e-03  7.5117066641644447e-03  7.0626972170511936e-03  6.6608282474520143e-03  6.2838987278113932e