<?xml version="1.0"?>
<VTKFile type="UnstructuredGrid"  version="0.1"  >
<UnstructuredGrid>
<Piece  NumberOfPoints="2601" NumberOfCells="5000">
<Points>
<DataArray  type="Float64"  NumberOfComponents="3"  format="ascii">0 0 0  0.02 0 0  0.04 0 0  0.06 0 0  0.08 0 0  0.1 0 0  0.12 0 0  0.14 0 0  0.16 0 0  0.18 0 0  0.2 0 0  0.22 0 0  0.24 0 0  0.26 0 0  0.28 0 0  0.3 0 0  0.32 0 0  0.34 0 0  0.36 0 0  0.38 0 0  0.4 0 0  0.42 0 0  0.44 0 0  0.46 0 0  0.48 0 0  0.5 0 0  0.52 0 0  0.54 0 0  0.5600000000000001 0 0  0.58 0 0  0.6 0 0  0.62 0 0  0.64 0 0  0.66 0 0  0.68 0 0  0.7 0 0  0.72 0 0  0.74 0 0  0.76 0 0  0.78 0 0  0.8 0 0  0.82 0 0  0.84 0 0  0.86 0 0  0.88 0 0  0.9 0 0  0.92 0 0  0.9399999999999999 0 0  0.96 0 0  0.98 0 0  1 0 0  0 0.1256 0  0.02 0.1256 0  0.04 0.1256 0  0.06 0.1256 0  0.08 0.1256 0  0.1 0.1256 0  0.12 0.1256 0  0.14 0.1256 0  0.16 0.1256 0  0.18 0.1256 0  0.2 0.1256 0  0.22 0.1256 0  0.24 0.1256 0  0.26 0.1256 0  0.28 0.1256 0  0.3 0.1256 0  0.32 0.1256 0  0.34 0.1256 0  0.36 0.1256 0  0.38 0.1256 0  0.4 0.1256 0  0.42 0.1256 0  0.44 0.1256 0  0.46 0.1256 0  0.48 0.1256 0  0.5 0.1256 0  0.52 0.1256 0  0.54 0.1256 0  0.5600000000000001 0.1256 0  0.58 0.1256 0  0.6 0.1256 0  0.62 0.1256 0  0.64 0.1256 0  0.66 0.1256 0  0.68 0.1256 0  0.7 0.1256 0  0.72 0.1256 0  0.74 0.1256 0  0.76 0.1256 0  0.78 0.1256 0  0.8 0.1256 0  0.82 0.1256 0  0.84 0.1256 0  0.86 0.1256 0  0.88 0.1256 0  0.9 0.1256 0  0.92 0.1256 0  0.9399999999999999 0.1256 0  0.96 0.1256 0  0.98 0.1256 0  1 0.1256 0  0 0.2512 0  0.02 0.2512 0  0.04 0.2512 0  0.06 0.2512 0  0.08 0.2512 0  0.1 0.2512 0  0.12 0.2512 0  0.14 0.2512 0  0.16 0.2512 0  0.18 0.2512 0  0.2 0.2512 0  0.22 0.2512 0  0.24 0.2512 0  0.26 0.2512 0  0.28 0.2512 0  0.3 0.2512 0  0.32 0.2512 0  0.34 0.2512 0  0.36 0.2512 0  0.38 0.2512 0  0.4 0.2512 0  0.42 0.2512 0  0.44 0.2512 0  0.46 0.2512 0  0.48 0.2512 0  0.5 0.2512 0  0.52 0.2512 0  0.54 0.2512 0  0.5600000000000001 0.2512 0  0.58 0.2512 0  0.6 0.2512 0  0.62 0.2512 0  0.64 0.2512 0  0.66 0.2512 0  0.68 0.2512 0  0.7 0.2512 0  0.72 0.2512 0  0.74 0.2512 0  0.76 0.2512 0  0.78 0.2512 0  0.8 0.2512 0  0.82 0.2512 0  0.84 0.2512 0  0.86 0.2512 0  0.88 0.2512 0  0.9 0.2512 0  0.92 0.2512 0  0.9399999999999999 0.2512 0  0.96 0.2512 0  0.98 0.2512 0  1 0.2512 0  0 0.3768 0  0.02 0.3768 0  0.04 0.3768 0  0.06 0.3768 0  0.08 0.3768 0  0.1 0.3768 0  0.12 0.3768 0  0.14 0.3768 0  0.16 0.3768 0  0.18 0.3768 0  0.2 0.3768 0  0.22 0.3768 0  0.24 0.3768 0  0.26 0.3768 0  0.28 0.3768 0  0.3 0.3768 0  0.32 0.3768 0  0.34 0.3768 0  0.36 0.3768 0  0.38 0.3768 0  0.4 0.3768 0  0.42 0.3768 0  0.44 0.3768 0  0.46 0.3768 0  0.48 0.3768 0  0.5 0.3768 0  0.52 0.3768 0  0.54 0.3768 0  0.5600000000000001 0.3768 0  0.58 0.3768 0  0.6 0.3768 0  0.62 0.3768 0  0.64 0.3768 0  0.66 0.3768 0  0.68 0.3768 0  0.7 0.3768 0  0.72 0.3768 0  0.74 0.3768 0  0.76 0.3768 0  0.78 0.3768 0  0.8 0.3768 0  0.82 0.3768 0  0.84 0.3768 0  0.86 0.3768 0  0.88 0.3768 0  0.9 0.3768 0  0.92 0.3768 0  0.9399999999999999 0.3768 0  0.96 0.3768 0  0.98 0.3768 0  1 0.3768 0  0 0.5024000000000001 0  0.02 0.5024000000000001 0  0.04 0.5024000000000001 0  0.06 0.5024000000000001 0  0.08 0.5024000000000001 0  0.1 0.5024000000000001 0  0.12 0.5024000000000001 0  0.14 0.5024000000000001 0  0.16 0.5024000000000001 0  0.18 0.5024000000000001 0  0.2 0.5024000000000001 0  0.22 0.5024000000000001 0  0.24 0.5024000000000001 0  0.26 0.5024000000000001 0  0.28 0.5024000000000001 0  0.3 0.5024000000000001 0  0.32 0.5024000000000001 0  0.34 0.5024000000000001 0  0.36 0.5024000000000001 0  0.38 0.5024000000000001 0  0.4 0.5024000000000001 0  0.42 0.5024000000000001 0  0.44 0.5024000000000001 0  0.46 0.5024000000000001 0  0.48 0.5024000000000001 0  0.5 0.5024000000000001 0  0.52 0.5024000000000001 0  0.54 0.5024000000000001 0  0.5600000000000001 0.5024000000000001 0  0.58 0.5024000000000001 0  0.6 0.5024000000000001 0  0.62 0.5024000000000001 0  0.64 0.5024000000000001 0  0.66 0.5024000000000001 0  0.68 0.5024000000000001 0  0.7 0.5024000000000001 0  0.72 0.5024000000000001 0  0.74 0.5024000000000001 0  0.76 0.5024000000000001 0  0.78 0.5024000000000001 0  0.8 0.5024000000000001 0  0.82 0.5024000000000001 0  0.84 0.5024000000000001 0  0.86 0.5024000000000001 0  0.88 0.5024000000000001 0  0.9 0.5024000000000001 0  0.92 0.5024000000000001 0  0.9399999999999999 0.5024000000000001 0  0.96 0.5024000000000001 0  0.98 0.5024000000000001 0  1 0.5024000000000001 0  0 0.628 0  0.02 0.628 0  0.04 0.628 0  0.06 0.628 0  0.08 0.628 0  0.1 0.628 0  0.12 0.628 0  0.14 0.628 0  0.16 0.628 0  0.18 0.628 0  0.2 0.628 0  0.22 0.628 0  0.24 0.628 0  0.26 0.628 0  0.28 0.628 0  0.3 0.628 0  0.32 0.628 0  0.34 0.628 0  0.36 0.628 0  0.38 0.628 0  0.4 0.628 0  0.42 0.628 0  0.44 0.628 0  0.46 0.628 0  0.48 0.628 0  0.5 0.628 0  0.52 0.628 0  0.54 0.628 0  0.5600000000000001 0.628 0  0.58 0.628 0  0.6 0.628 0  0.62 0.628 0  0.64 0.628 0  0.66 0.628 0  0.68 0.628 0  0.7 0.628 0  0.72 0.628 0  0.74 0.628 0  0.76 0.628 0  0.78 0.628 0  0.8 0.628 0  0.82 0.628 0  0.84 0.628 0  0.86 0.628 0  0.88 0.628 0  0.9 0.628 0  0.92 0.628 0  0.9399999999999999 0.628 0  0.96 0.628 0  0.98 0.628 0  1 0.628 0  0 0.7536 0  0.02 0.7536 0  0.04 0.7536 0  0.06 0.7536 0  0.08 0.7536 0  0.1 0.7536 0  0.12 0.7536 0  0.14 0.7536 0  0.16 0.7536 0  0.18 0.7536 0  0.2 0.7536 0  0.22 0.7536 0  0.24 0.7536 0  0.26 0.7536 0  0.28 0.7536 0  0.3 0.7536 0  0.32 0.7536 0  0.34 0.7536 0  0.36 0.7536 0  0.38 0.7536 0  0.4 0.7536 0  0.42 0.7536 0  0.44 0.7536 0  0.46 0.7536 0  0.48 0.7536 0  0.5 0.7536 0  0.52 0.7536 0  0.54 0.7536 0  0.5600000000000001 0.7536 0  0.58 0.7536 0  0.6 0.7536 0  0.62 0.7536 0  0.64 0.7536 0  0.66 0.7536 0  0.68 0.7536 0  0.7 0.7536 0  0.72 0.7536 0  0.74 0.7536 0  0.76 0.7536 0  0.78 0.7536 0  0.8 0.7536 0  0.82 0.7536 0  0.84 0.7536 0  0.86 0.7536 0  0.88 0.7536 0  0.9 0.7536 0  0.92 0.7536 0  0.9399999999999999 0.7536 0  0.96 0.7536 0  0.98 0.7536 0  1 0.7536 0  0 0.8792 0  0.02 0.8792 0  0.04 0.8792 0  0.06 0.8792 0  0.08 0.8792 0  0.1 0.8792 0  0.12 0.8792 0  0.14 0.8792 0  0.16 0.8792 0  0.18 0.8792 0  0.2 0.8792 0  0.22 0.8792 0  0.24 0.8792 0  0.26 0.8792 0  0.28 0.8792 0  0.3 0.8792 0  0.32 0.8792 0  0.34 0.8792 0  0.36 0.8792 0  0.38 0.8792 0  0.4 0.8792 0  0.42 0.8792 0  0.44 0.8792 0  0.46 0.8792 0  0.48 0.8792 0  0.5 0.8792 0  0.52 0.8792 0  0.54 0.8792 0  0.5600000000000001 0.8792 0  0.58 0.8792 0  0.6 0.8792 0  0.62 0.8792 0  0.64 0.8792 0  0.66 0.8792 0  0.68 0.8792 0  0.7 0.8792 0  0.72 0.8792 0  0.74 0.8792 0  0.76 0.8792 0  0.78 0.8792 0  0.8 0.8792 0  0.82 0.8792 0  0.84 0.8792 0  0.86 0.8792 0  0.88 0.8792 0  0.9 0.8792 0  0.92 0.8792 0  0.9399999999999999 0.8792 0  0.96 0.8792 0  0.98 0.8792 0  1 0.8792 0  0 1.0048 0  0.02 1.0048 0  0.04 1.0048 0  0.06 1.0048 0  0.08 1.0048 0  0.1 1.0048 0  0.12 1.0048 0  0.14 1.0048 0  0.16 1.0048 0  0.18 1.0048 0  0.2 1.0048 0  0.22 1.0048 0  0.24 1.0048 0  0.26 1.0048 0  0.28 1.0048 0  0.3 1.0048 0  0.32 1.0048 0  0.34 1.0048 0  0.36 1.0048 0  0.38 1.0048 0  0.4 1.0048 0  0.42 1.0048 0  0.44 1.0048 0  0.46 1.0048 0  0.48 1.0048 0  0.5 1.0048 0  0.52 1.0048 0  0.54 1.0048 0  0.5600000000000001 1.0048 0  0.58 1.0048 0  0.6 1.0048 0  0.62 1.0048 0  0.64 1.0048 0  0.66 1.0048 0  0.68 1.0048 0  0.7 1.0048 0  0.72 1.0048 0  0.74 1.0048 0  0.76 1.0048 0  0.78 1.0048 0  0.8 1.0048 0  0.82 1.0048 0  0.84 1.0048 0  0.86 1.0048 0  0.88 1.0048 0  0.9 1.0048 0  0.92 1.0048 0  0.9399999999999999 1.0048 0  0.96 1.0048 0  0.98 1.0048 0  1 1.0048 0  0 1.1304 0  0.02 1.1304 0  0.04 1.1304 0  0.06 1.1304 0  0.08 1.1304 0  0.1 1.1304 0  0.12 1.1304 0  0.14 1.1304 0  0.16 1.1304 0  0.18 1.1304 0  0.2 1.1304 0  0.22 1.1304 0  0.24 1.1304 0  0.26 1.1304 0  0.28 1.1304 0  0.3 1.1304 0  0.32 1.1304 0  0.34 1.1304 0  0.36 1.1304 0  0.38 1.1304 0  0.4 1.1304 0  0.42 1.1304 0  0.44 1.1304 0  0.46 1.1304 0  0.48 1.1304 0  0.5 1.1304 0  0.52 1.1304 0  0.54 1.1304 0  0.5600000000000001 1.1304 0  0.58 1.1304 0  0.6 1.1304 0  0.62 1.1304 0  0.64 1.1304 0  0.66 1.1304 0  0.68 1.1304 0  0.7 1.1304 0  0.72 1.1304 0  0.74 1.1304 0  0.76 1.1304 0  0.78 1.1304 0  0.8 1.1304 0  0.82 1.1304 0  0.84 1.1304 0  0.86 1.1304 0  0.88 1.1304 0  0.9 1.1304 0  0.92 1.1304 0  0.9399999999999999 1.1304 0  0.96 1.1304 0  0.98 1.1304 0  1 1.1304 0  0 1.256 0  0.02 1.256 0  0.04 1.256 0  0.06 1.256 0  0.08 1.256 0  0.1 1.256 0  0.12 1.256 0  0.14 1.256 0  0.16 1.256 0  0.18 1.256 0  0.2 1.256 0  0.22 1.256 0  0.24 1.256 0  0.26 1.256 0  0.28 1.256 0  0.3 1.256 0  0.32 1.256 0  0.34 1.256 0  0.36 1.256 0  0.38 1.256 0  0.4 1.256 0  0.42 1.256 0  0.44 1.256 0  0.46 1.256 0  0.48 1.256 0  0.5 1.256 0  0.52 1.256 0  0.54 1.256 0  0.5600000000000001 1.256 0  0.58 1.256 0  0.6 1.256 0  0.62 1.256 0  0.64 1.256 0  0.66 1.256 0  0.68 1.256 0  0.7 1.256 0  0.72 1.256 0  0.74 1.256 0  0.76 1.256 0  0.78 1.256 0  0.8 1.256 0  0.82 1.256 0  0.84 1.256 0  0.86 1.256 0  0.88 1.256 0  0.9 1.256 0  0.92 1.256 0  0.9399999999999999 1.256 0  0.96 1.256 0  0.98 1.256 0  1 1.256 0  0 1.3816 0  0.02 1.3816 0  0.04 1.3816 0  0.06 1.3816 0  0.08 1.3816 0  0.1 1.3816 0  0.12 1.3816 0  0.14 1.3816 0  0.16 1.3816 0  0.18 1.3816 0  0.2 1.3816 0  0.22 1.3816 0  0.24 1.3816 0  0.26 1.3816 0  0.28 1.3816 0  0.3 1.3816 0  0.32 1.3816 0  0.34 1.3816 0  0.36 1.3816 0  0.38 1.3816 0  0.4 1.3816 0  0.42 1.3816 0  0.44 1.3816 0  0.46 1.3816 0  0.48 1.3816 0  0.5 1.3816 0  0.52 1.3816 0  0.54 1.3816 0  0.5600000000000001 1.3816 0  0.58 1.3816 0  0.6 1.3816 0  0.62 1.3816 0  0.64 1.3816 0  0.66 1.3816 0  0.68 1.3816 0  0.7 1.3816 0  0.72 1.3816 0  0.74 1.3816 0  0.76 1.3816 0  0.78 1.3816 0  0.8 1.3816 0  0.82 1.3816 0  0.84 1.3816 0  0.86 1.3816 0  0.88 1.3816 0  0.9 1.3816 0  0.92 1.3816 0  0.9399999999999999 1.3816 0  0.96 1.3816 0  0.98 1.3816 0  1 1.3816 0  0 1.5072 0  0.02 1.5072 0  0.04 1.5072 0  0.06 1.5072 0  0.08 1.5072 0  0.1 1.5072 0  0.12 1.5072 0  0.14 1.5072 0  0.16 1.5072 0  0.18 1.5072 0  0.2 1.5072 0  0.22 1.5072 0  0.24 1.5072 0 
[...]
<PointData  Scalars="f_12"> 
<DataArray  type="Float64"  Name="f_12"  format="ascii">3.2245174632442247e-01  3.0245174630612198e-01  2.8245174746722218e-01  2.6245181858356370e-01  2.4245345726895803e-01  2.2240435079353943e-01  2.0495639086953399e-01  1.8992299361826895e-01  1.7716596114972272e-01  1.6567167493618198e-01  1.5559963418528283e-01  1.4629872710884487e-01  1.3797429913264131e-01  1.3016647355644170e-01  1.2307087539442015e-01  1.1634456510740109e-01  1.1016056163332653e-01  1.0425343824239316e-01  9.8772838335966867e-02  9.3507506966706400e-02  8.8586270808455408e-02  8.3837221851679258e-02  7.9371525353633524e-02  7.5046724669798795e-02  7.0959243035929431e-02  6.6989214965049740e-02  6.3220799934443739e-02  5.9551820868144867e-02  5.6056210686390898e-02  5.2645887141918403e-02  4.9386212311457310e-02  4.6200507375138894e-02  4.3146906569045226e-02  4.0158080749536140e-02  3.7286028475432061e-02  3.4471177146993714e-02  3.1760282108223750e-02  2.9100273294718659e-02  2.6533396382272832e-02  2.4012083696739898e-02  2.1574677894497706e-02  1.9178306348005793e-02  1.6857913408141335e-02  1.4574662361536119e-02  1.2360521426918493e-02  1.0180145666833409e-02  8.0628818082775517e-03  5.9764222384880812e-03  3.9477908135678056e-03  1.9473326512758186e-03  0.0000000000000000e+00  3.2245174632442247e-01  3.0245174630612121e-01  2.8245174498407832e-01  2.6245168282194492e-01  2.4244988031974388e-01  2.2249547922672708e-01  2.0478393667831549e-01  1.9006566409288353e-01  1.7703892533351503e-01  1.6578343132797069e-01  1.5550090212416354e-01  1.4638615587062911e-01  1.3789659644958360e-01  1.3023579505054966e-01  1.2300878317955495e-01  1.1640040460817207e-01  1.1011014729945126e-01  1.0429912823291285e-01  9.8731278147488749e-02  9.3545442894393926e-02  8.8551527960845353e-02  8.3869140652470239e-02  7.9342113666382802e-02  7.5073902583065247e-02  7.0934062533375128e-02  6.7012603745421104e-02  6.3199024243761628e-02  5.9572141078197235e-02  5.6037209927012263e-02  5.2663692506052101e-02  4.9369500010919200e-02  4.6216229899204528e-02  4.3132103059802154e-02  4.0172063315002809e-02  3.7272836117020786e-02  3.4483698495351933e-02  3.1748469907292264e-02  2.9111569554468142e-02  2.6522793586822326e-02  2.4022370822629053e-02  2.1565178373341879e-02  1.9187809173692828e-02  1.6849495609179525e-02  1.4583658761024493e-02  1.2353293091426042e-02  1.0189039185520140e-02  8.0571652821337103e-03  5.9858644301196574e-03  3.9442749532245325e-03  1.9584286110987171e-03  0.0000000000000000e+00  3.2245174632442242e-01  3.0245174630612204e-01  2.8245174746722207e-01  2.6245181858356376e-01  2.4245345726895814e-01  2.2240435079353948e-01  2.0495639086953410e-01  1.8992299361826900e-01  1.7716596114972263e-01  1.6567167493618185e-01  1.5559963418528275e-01  1.4629872710884484e-01  1.3797429913264123e-01  1.3016647355644159e-01  1.2307087539441995e-01  1.1634456510740085e-01  1.1016056163332612e-01  1.0425343824239250e-01  9.8772838335965840e-02  9.3507506966704790e-02  8.8586270808452952e-02  8.3837221851675400e-02  7.9371525353627542e-02  7.5046724669789483e-02  7.0959243035923297e-02  6.6989214965045354e-02  6.3220799934440769e-02  5.9551820868142799e-02  5.6056210686389392e-02  5.2645887141917286e-02  4.9386212311456477e-02  4.6200507375138256e-02  4.3146906569044741e-02  4.0158080749535779e-02  3.7286028475431762e-02  3.4471177146993479e-02  3.1760282108223549e-02  2.9100273294718468e-02  2.6533396382272673e-02  2.4012083696739756e-02  2.1574677894497591e-02  1.9178306348005700e-02  1.6857913408141249e-02  1.4574662361536043e-02  1.2360521426918425e-02  1.0180145666833354e-02  8.0628818082775066e-03  5.9764222384880482e-03  3.9477908135677840e-03  1.9473326512758080e-03  0.0000000000000000e+00  3.2245174632442231e-01  3.0245174630612137e-01  2.8245174498407827e-01  2.6245168282194503e-01  2.4244988031974396e-01  2.2249547922672713e-01  2.0478393667831565e-01  1.9006566409288358e-01  1.7703892533351492e-01  1.6578343132797052e-01  1.5550090212416340e-01  1.4638615587062898e-01  1.3789659644958341e-01  1.3023579505054944e-01  1.2300878317955466e-01  1.1640040460817169e-01  1.1011014729945079e-01  1.0429912823291218e-01  9.8731278147487833e-02  9.3545442894392747e-02  8.8551527960843909e-02  8.3869140652468574e-02  7.9342113666381067e-02  7.5073902583063901e-02  7.0934062533374975e-02  6.7012603745420438e-02  6.3199024243760740e-02  5.9572141078196382e-02  5.6037209927011472e-02  5.2663692506051393e-02  4.9369500010918561e-02  4.6216229899203987e-02  4.3132103059801696e-02  4.0172063315002421e-02  3.7272836117020453e-02  3.4483698495351649e-02  3.1748469907292014e-02  2.9111569554467920e-02  2.6522793586822125e-02  2.4022370822628869e-02  2.1565178373341723e-02  1.9187809173692706e-02  1.6849495609179428e-02  1.4583658761024416e-02  1.2353293091425984e-02  1.0189039185520091e-02  8.0571652821336704e-03  5.9858644301196270e-03  3.9442749532245134e-03  1.9584286110987080e-03  0.0000000000000000e+00  3.2245174632442214e-01  3.0245174630612226e-01  2.8245174746722218e-01  2.6245181858356387e-01  2.4245345726895817e-01  2.2240435079353946e-01  2.0495639086953413e-01  1.8992299361826895e-01  1.7716596114972261e-01  1.6567167493618171e-01  1.5559963418528253e-01  1.4629872710884465e-01  1.3797429913264103e-01  1.3016647355644131e-01  1.2307087539441965e-01  1.1634456510740049e-01  1.1016056163332567e-01  1.0425343824239193e-01  9.8772838335965174e-02  9.3507506966703999e-02  8.8586270808452147e-02  8.3837221851674623e-02  7.9371525353626862e-02  7.5046724669788969e-02  7.0959243035923061e-02  6.6989214965045396e-02  6.3220799934440630e-02  5.9551820868142563e-02  5.6056210686389114e-02  5.2645887141917008e-02  4.9386212311456193e-02  4.6200507375137971e-02  4.3146906569044463e-02  4.0158080749535516e-02  3.7286028475431533e-02  3.4471177146993257e-02  3.1760282108223348e-02  2.9100273294718291e-02  2.6533396382272523e-02  2.4012083696739628e-02  2.1574677894497480e-02  1.9178306348005613e-02  1.6857913408141183e-02  1.4574662361535989e-02  1.2360521426918384e-02  1.0180145666833323e-02  8.0628818082774840e-03  5.9764222384880335e-03  3.9477908135677727e-03  1.9473326512758017e-03  0.0000000000000000e+00  3.2245174632442197e-01  3.0245174630612176e-01  2.8245174498407849e-01  2.6245168282194520e-01  2.4244988031974393e-01  2.2249547922672716e-01  2.0478393667831557e-01  1.9006566409288347e-01  1.7703892533351481e-01  1.6578343132797041e-01  1.5550090212416315e-01  1.4638615587062881e-01  1.3789659644958324e-01  1.3023579505054922e-01  1.2300878317955440e-01  1.1640040460817135e-01  1.1011014729945039e-01  1.0429912823291176e-01  9.8731278147487403e-02  9.3545442894392303e-02  8.8551527960843507e-02  8.3869140652468158e-02  7.9342113666380679e-02  7.5073902583063554e-02  7.0934062533374725e-02  6.7012603745420243e-02  6.3199024243760588e-02  5.9572141078196181e-02  5.6037209927011229e-02  5.2663692506051164e-02  4.9369500010918367e-02  4.6216229899203799e-02  4.3132103059801558e-02  4.0172063315002289e-02  3.7272836117020348e-02  3.4483698495351538e-02  3.1748469907291917e-02  2.9111569554467826e-02  2.6522793586822045e-02  2.4022370822628796e-02  2.1565178373341660e-02  1.9187809173692651e-02  1.6849495609179373e-02  1.4583658761024361e-02  1.2353293091425938e-02  1.0189039185520049e-02  8.0571652821336374e-03  5.9858644301195984e-03  3.9442749532244943e-03  1.9584286110986985e-03  0.0000000000000000e+00  3.2245174632442175e-01  3.0245174630612265e-01  2.8245174746722240e-01  2.6245181858356403e-01  2.4245345726895823e-01  2.2240435079353954e-01  2.0495639086953413e-01  1.8992299361826900e-01  1.7716596114972258e-01  1.6567167493618165e-01  1.5559963418528241e-01  1.4629872710884451e-01  1.3797429913264081e-01  1.3016647355644106e-01  1.2307087539441938e-01  1.1634456510740018e-01  1.1016056163332538e-01  1.0425343824239164e-01  9.8772838335964855e-02  9.3507506966703680e-02  8.8586270808451814e-02  8.3837221851674332e-02  7.9371525353626599e-02  7.5046724669788734e-02  7.0959243035922853e-02  6.6989214965045188e-02  6.3220799934440436e-02  5.9551820868142369e-02  5.6056210686388955e-02  5.2645887141916856e-02  4.9386212311456061e-02  4.6200507375137867e-02  4.3146906569044359e-02  4.0158080749535426e-02  3.7286028475431443e-02  3.4471177146993166e-02  3.1760282108223264e-02  2.9100273294718208e-02  2.6533396382272440e-02  2.4012083696739552e-02  2.1574677894497411e-02  1.9178306348005554e-02  1.6857913408141127e-02  1.4574662361535946e-02  1.2360521426918349e-02  1.0180145666833295e-02  8.0628818082774615e-03  5.9764222384880161e-03  3.9477908135677631e-03  1.9473326512757980e-03  0.0000000000000000e+00  3.2245174632442153e-01  3.0245174630612215e-01  2.8245174498407871e-01  2.6245168282194531e-01  2.4244988031974399e-01  2.2249547922672724e-01  2.0478393667831560e-01  1.9006566409288356e-01  1.7703892533351492e-01  1.6578343132797041e-01  1.5550090212416318e-01  1.4638615587062870e-01  1.3789659644958302e-01  1.3023579505054905e-01  1.2300878317955420e-01  1.1640040460817122e-01  1.1011014729945026e-01  1.0429912823291160e-01  9.8731278147487181e-02  9.3545442894392053e-02  8.8551527960843188e-02  8.3869140652467880e-02  7.9342113666380484e-02  7.5073902583063415e-02  7.0934062533374573e-02  6.7012603745420132e-02  6.3199024243760532e-02  5.9572141078196139e-02  5.6037209927011236e-02  5.2663692506051171e-02  4.9369500010918360e-02  4.6216229899203778e-02  4.3132103059801495e-02  4.0172063315002227e-02  3.7272836117020258e-02  3.4483698495351468e-02  3.1748469907291854e-02  2.9111569554467767e-02  2.6522793586821990e-02  2.4022370822628758e-02  2.1565178373341619e-02  1.9187809173692606e-02  1.6849495609179331e-02  1.4583658761024324e-02  1.2353293091425905e-02  1.0189039185520030e-02  8.0571652821336288e-03  5.9858644301195958e-03  3.9442749532244909e-03  1.9584286110986963e-03  0.0000000000000000e+00  3.2245174632442131e-01  3.0245174630612309e-01  2.8245174746722257e-01  2.6245181858356414e-01  2.4245345726895834e-01  2.2240435079353960e-01  2.0495639086953413e-01  1.8992299361826900e-01  1.7716596114972261e-01  1.6567167493618162e-01  1.5559963418528239e-01  1.4629872710884445e-01  1.3797429913264075e-01  1.3016647355644101e-01  1.2307087539441933e-01  1.1634456510740011e-01  1.1016056163332529e-01  1.0425343824239154e-01  9.8772838335964785e-02  9.3507506966703652e-02  8.8586270808451772e-02  8.3837221851674276e-02  7.9371525353626557e-02  7.5046724669788734e-02  7.0959243035922881e-02  6.6989214965045257e-02  6.3220799934440491e-02  5.9551820868142431e-02  5.6056210686388996e-02  5.2645887141916883e-02  4.9386212311456061e-02  4.6200507375137839e-02  4.3146906569044324e-02  4.0158080749535377e-02  3.7286028475431394e-02  3.4471177146993132e-02  3.1760282108223237e-02  2.9100273294718190e-02  2.6533396382272433e-02  2.4012083696739555e-02  2.1574677894497407e-02  1.9178306348005544e-02  1.6857913408141124e-02  1.4574662361535942e-02  1.2360521426918349e-02  1.0180145666833297e-02  8.0628818082774632e-03  5.9764222384880161e-03  3.9477908135677623e-03  1.9473326512757972e-03  0.0000000000000000e+00  3.2245174632442103e-01  3.0245174630612243e-01  2.8245174498407888e-01  2.6245168282194542e-01  2.4244988031974410e-01  2.2249547922672736e-01  2.0478393667831565e-01  1.9006566409288358e-01  1.7703892533351495e-01  1.6578343132797044e-01  1.5550090212416318e-01  1.4638615587062870e-01  1.3789659644958302e-01  1.3023579505054900e-01  1.2300878317955420e-01  1.1640040460817118e-01  1.1011014729945016e-01  1.0429912823291150e-01  9.8731278147487125e-02  9.3545442894392039e-02  8.8551527960843243e-02  8.3869140652467963e-02  7.9342113666380568e-02  7.5073902583063498e-02  7.0934062533374656e-02  6.7012603745420188e-02  6.3199024243760560e-02  5.9572141078196174e-02  5.6037209927011257e-02  5.2663692506051171e-02  4.9369500010918346e-02  4.6216229899203744e-02  4.3132103059801474e-02  4.0172063315002206e-02  3.7272836117020251e-02  3.4483698495351454e-02  3.1748469907291840e-02  2.9111569554467764e-02  2.6522793586821993e-02  2.4022370822628755e-02  2.1565178373341619e-02  1.9187809173692616e-02  1.6849495609179348e-02  1.4583658761024340e-02  1.2353293091425920e-02  1.0189039185520039e-02  8.0571652821336322e-03  5.9858644301195958e-03  3.9442749532244909e-03  1.9584286110986967e-03  0.0000000000000000e+00  3.2245174632442070e-01  3.0245174630612320e-01  2.8245174746722274e-01  2.6245181858356420e-01  2.4245345726895848e-01  2.2240435079353976e-01  2.0495639086953427e-01  1.8992299361826911e-01  1.7716596114972269e-01  1.6567167493618171e-01  1.5559963418528247e-01  1.4629872710884445e-01  1.3797429913264075e-01  1.3016647355644101e-01  1.2307087539441937e-01  1.1634456510740016e-01  1.1016056163332529e-01  1.0425343824239156e-01  9.8772838335964827e-02  9.3507506966703680e-02  8.8586270808451786e-02  8.3837221851674318e-02  7.9371525353626599e-02  7.5046724669788761e-02  7.0959243035922895e-02  6.6989214965045230e-02  6.3220799934440478e-02  5.9551820868142431e-02  5.6056210686388996e-02  5.2645887141916890e-02  4.9386212311456082e-02  4.6200507375137874e-02  4.3146906569044387e-02  4.0158080749535439e-02  3.7286028475431436e-02  3.4471177146993173e-02  3.1760282108223278e-02  2.9100273294718235e-02  2.6533396382272478e-02  2.4012083696739593e-02  2.1574677894497445e-02  1.9178306348005582e-02  1.6857913408141155e-02  1.4574662361535972e-02  1.2360521426918371e-02  1.0180145666833311e-02  8.0628818082774736e-03  5.9764222384880239e-03  3.9477908135677666e-03  1.9473326512757993e-03  0.0000000000000000e+00  3.2245174632442036e-01  3.0245174630612265e-01  2.8245174498407910e-01  2.6245168282194553e-01  2.4244988031974427e-01  2.2249547922672752e-01  2.0478393667831576e-01  1.9006566409288370e-01  1.7703892533351501e-01  1.6578343132797055e-01  1.5550090212416329e-01  1.4638615587062875e-01  1.3789659644958313e-01  1.3023579505054905e-01  1.2300878317955420e-01  1.1640040460817122e-01  1.1011014729945026e-01  1.0429912823291160e-01  9.8731278147487167e-02  9.3545442894392039e-02  8.8551527960843174e-02  8.3869140652467880e-02  7.9342113666380540e-02  7.5073902583063484e-02  7.0934062533374642e-02  6.7012603745420188e-02  6.3199024243760574e-02  5.9572141078196202e-02  5.6037209927011299e-02  5.2663692506051227e-02  4.9369500010918423e-02  4.6216229899203841e-02  4.3132103059801565e-02  4.0172063315002289e-02  3.7272836117020335e-02  3.4483698495351538e-02  3.1748469907291924e-02  2.9111569554467844e-02  2.6522793586822063e-02  2.4022370822628807e-02  2.1565178373341650e-02  1.9187809173692637e-02  1.6849495609179359e-02  1.4583658761024352e-02  1.2353293091425929e-02  1.0189039185520049e-02  8.0571652821336409e-03  5.9858644301196045e-03  3.9442749532244969e-03  1.9584286110986989e-03  0.0000000000000000e+00  3.2245174632442003e-01  3.0245174630612348e-01  2.8245174746722296e-01  2.6245181858356442e-01  2.4245345726895859e-01  2.2240435079353990e-01  2.0495639086953435e-01  1.8992299361826914e-01  1.7716596114972272e-01  1.6567167493618179e-01  1.5559963418528255e-01  1.4629872710884459e-01  1.3797429913264089e-01  1.3016647355644112e-01  1.2307087539441942e-01  1.1634456510740021e-01  1.1016056163332535e-01  1.0425343824239158e-01  9.8772838335964827e-02  9.3507506966703707e-02  8.8586270808451842e-02  8.3837221851674373e-02  7.9371525353626654e-02  7.5046724669788845e-02  7.0959243035923006e-02  6.6989214965045368e-02  6.3220799934440616e-02  5.9551820868142549e-02  5.6056210686389128e-02  5.2645887141917022e-02  4.9386212311456200e-02  4.6200507375137978e-02  4.3146906569044456e-02  4.0158080749535516e-02  3.7286028475431519e-02  3.4471177146993250e-02  3.1760282108223341e-02  2.9100273294718287e-02  2.6533396382272516e-02  2.4012083696739624e-02  2.1574677894497466e-02  1.9178306348005592e-02  1.6857913408141169e-02  1.4574662361535977e-02  1.2360521426918377e-02  1.0180145666833318e-02  8.0628818082774788e-03  5.9764222384880291e-03  3.9477908135677709e-03  1.9473326512758013e-03  0.0000000000000000e+00  3.2245174632441959e-01  3.0245174630612276e-01  2.8245174498407910e-01  2.6245168282194575e-01  2.4244988031974446e-01  2.2249547922672760e-01  2.0478393667831593e-01  1.9006566409288378e-01  1.7703892533351506e-01  1.6578343132797058e-01  1.5550090212416334e-01  1.4638615587062892e-01  1.3789659644958324e-01  1.3023579505054919e-01  1.2300878317955438e-01  1.1640040460817132e-01  1.1011014729945028e-01  1.0429912823291164e-01  9.8731278147487264e-02  9.3545442894392178e-02  8.8551527960843382e-02  8.3869140652468116e-02  7.9342113666380706e-02  7.5073902583063665e-02  7.0934062533374836e-02  6.7012603745420368e-02  6.3199024243760754e-02  5.9572141078196375e-02  5.6037209927011472e-02  5.2663692506051379e-02  4.9369500010918548e-02  4.6216229899203952e-02  4.3132103059801669e-02  4.0172063315002386e-02  3.7272836117020425e-02  3.4483698495351614e-02  3.1748469907291979e-02  2.9111569554467896e-02  2.6522793586822108e-02  2.4022370822628866e-02  2.1565178373341713e-02  1.9187809173692696e-02  1.6849495609179414e-02  1.4583658761024396e-02  1.2353293091425969e-02  1.0189039185520077e-02  8.0571652821336617e-03  5.9858644301196175e-03  3.9442749532245065e-03  1.9584286110987050e-03  0.0000000000000000e+00  3.2245174632441909e-01  3.0245174630612348e-01  2.8245174746722290e-01  2.6245181858356459e-01  2.4245345726895873e-01  2.2240435079353998e-01  2.0495639086953443e-01  1.8992299361826923e-01  1.7716596114972277e-01  1.6567167493618185e-01  1.5559963418528264e-01  1.4629872710884465e-01  1.3797429913264098e-01  1.3016647355644129e-01  1.2307087539441958e-01  1.1634456510740032e-01  1.1016056163332547e-01  1.0425343824239172e-01  9.8772838335964994e-02  9.3507506966703860e-02  8.8586270808451995e-02  8.3837221851674582e-02  7.9371525353626848e-02  7.5046724669789039e-02  7.0959243035923172e-02  6.6989214965045507e-02  6.3220799934440769e-02  5.9551820868142716e-02  5.6056210686389281e-02  5.2645887141917189e-02  4.9386212311456373e-02  4.6200507375138165e-02  4.3146906569044630e-02  4.0158080749535668e-02  3.7286028475431658e-02  3.4471177146993381e-02  3.1760282108223466e-02  2.9100273294718398e-02  2.6533396382272614e-02  2.4012083696739722e-02  2.1574677894497553e-02  1.9178306348005662e-02  1.6857913408141221e-02  1.4574662361536020e-02  1.2360521426918411e-02  1.0180145666833349e-02  8.0628818082775066e-03  5.9764222384880508e-03  3.9477908135677857e-03  1.9473326512758084e-03  0.0000000000000000e+00  3.2245174632441859e-01  3.0245174630612270e-01  2.8245174498407910e-01  2.6245168282194586e-01  2.4244988031974443e-01  2.2249547922672763e-01  2.0478393667831590e-01  1.9006566409288378e-01  1.7703892533351503e-01  1.6578343132797058e-01  1.5550090212416334e-01  1.4638615587062889e-01  1.3789659644958333e-01  1.3023579505054930e-01  1.2300878317955447e-01  1.1640040460817144e-01  1.1011014729945046e-01  1.0429912823291179e-01  9.8731278147487431e-02  9.3545442894392358e-02  8.8551527960843535e-02  8.3869140652468269e-02  7.9342113666380901e-02  7.5073902583063790e-02  7.0934062533374947e-02  6.7012603745420507e-02  6.3199024243760893e-02  5.9572141078196507e-02  5.6037209927011604e-02  5.2663692506051532e-02  4.9369500010918700e-02  4.6216229899204098e-02  4.3132103059801814e-02  4.0172063315002532e-02  3.7272836117020570e-02  3.4483698495351774e-02  3.1748469907292146e-02  2.9111569554468031e-02  2.6522793586822222e-02  2.4022370822628952e-02  2.1565178373341796e-02  1.9187809173692765e-02  1.6849495609179470e-02  1.4583658761024448e-02  1.2353293091426012e-02  1.0189039185520114e-02  8.0571652821336912e-03  5.9858644301196418e-03  3.9442749532245212e-03  1.9584286110987119e-03  0.0000000000000000e+00  3.2245174632441803e-01  3.0245174630612337e-01  2.8245174746722285e-01  2.6245181858356470e-01  2.4245345726895878e-01  2.2240435079353993e-01  2.0495639086953438e-01  1.8992299361826920e-01  1.7716596114972283e-01  1.6567167493618193e-01  1.5559963418528264e-01  1.4629872710884473e-01  1.3797429913264106e-01  1.3016647355644134e