<?xml version="1.0"?>
<VTKFile type="UnstructuredGrid"  version="0.1"  >
<UnstructuredGrid>
<Piece  NumberOfPoints="571" NumberOfCells="996">
<Points>
<DataArray  type="Float64"  NumberOfComponents="3"  format="ascii">0 6.283185307179586 0  0 0 0  1 0 0  1 6.283185307179586 0  0 3.141592653589793 0  1 3.141592653589793 0  1 1.570796326794897 0  0 1.570796326794897 0  1 4.71238898038469 0  0 4.71238898038469 0  1 0.7853981633974483 0  0 0.7853981633974483 0  1 3.926990816987241 0  0 3.926990816987241 0  0 2.356194490192345 0  1 2.356194490192345 0  0 5.497787143782138 0  1 5.497787143782138 0  0.5 2.748893571891069 0  0.5 3.534291735288517 0  0.5 4.319689898685965 0  0.5 0 0  0.5 1.963495408493621 0  0.5 5.105088062083414 0  0.5 6.283185307179586 0  0.5 1.178097245096172 0  0.5 5.619747489116567 0  0.5 0.5518540247906195 0  0 5.890486225480862 0  1 5.890486225480862 0  0.5957874312329785 4.71238898038469 0  0 5.105088062083414 0  1 5.105088062083414 0  1 4.319689898685965 0  0 4.319689898685965 0  1 3.534291735288517 0  0.4042125687670212 1.570796326794897 0  0.4042125687670212 2.356194490192345 0  0.5957874312329788 3.141592653589793 0  0 3.534291735288517 0  1 0.3926990816987241 0  1 1.178097245096172 0  1 1.963495408493621 0  1 2.748893571891069 0  0 0.3926990816987241 0  0 1.178097245096172 0  0 1.963495408493621 0  0 2.748893571891069 0  0.5957874312329789 3.926990816987241 0  0.6436811468494684 5.951466398148076 0  0.3138265182913322 6.005569319238938 0  0.2978937156164893 4.577019612202541 0  0.25 4.908738521234052 0  0.25 0.9817477042468103 0  0.25 0 0  0.25 3.730641276137879 0  0.25 3.337942194439155 0  0.2978937156164894 3.006223285407645 0  0.75 2.552544031041707 0  0.75 2.159844949342983 0  0.75 1.767145867644259 0  0.75 1.374446785945534 0  0.75 0.9817477042468103 0  0.75 0 0  0.2978937156164895 4.062360185169389 0  0.75 5.301437602932776 0  0.25 5.301437602932776 0  0.375 0.2759270123953098 0  0.6980311007659639 0.3090114411958756 0  0.7830193897823963 5.6941366846315 0  0.2169806102176037 5.6941366846315 0  0.7978937156164893 4.516039439535327 0  0.7978937156164893 4.908738521234052 0  0.25 2.601841935517049 0  0.2021062843835106 2.159844949342983 0  0.25 1.816443772119601 0  0.2021062843835106 1.374446785945534 0  0.75 3.387240098914498 0  0.7978937156164894 2.945243112740431 0  0.75 3.681343371662537 0  0.75 4.172638262311946 0  0.2128302959105844 0.5890486225480862 0  0.7871697040894156 0.5890486225480862 0  0.4999999999999999 5.36241777559999 0  0.5 0.920767531579596 0  0.25 6.283185307179586 0  0.75 6.283185307179586 0  0.25 4.331372166877837 0  1 6.086835766330224 0  0 0.1963495408493621 0  0.622102517358506 0.7363107781851077 0  0.332216197964569 0.7758571550901723 0  1 0.1963495408493621 0  0.3983304225953199 5.808516864122833 0  0 6.086835766330224 0  0.3012183704939785 2.800802654201122 0  0.3361788163576619 5.491082632358279 0  0.6814626069969019 5.50493817386067 0  0.5911998152418722 4.91930177496485 0  0.5911998152418722 4.50547618580453 0  0.4675064615292832 3.750249390675804 0  0.5535684723479538 3.339326385020472 0  0.4088001847581275 2.149281695612185 0  0.5324935384707169 1.394054900483459 0  0.6580637648448636 1.570796326794897 0  0.5334997574169976 1.748818910859401 0  0.5324935384707169 2.532935916503783 0  0.6203776090027646 2.33422402420054 0  0.5 2.956925380932303 0  0.2021062843835106 1.576637460890832 0  0.2021062843835106 2.362035624288281 0  0.7978937156164894 3.185943868343923 0  0.7978937156164895 3.882639602233112 0  0.5535684723479539 4.12472454841792 0  0.3943295666266929 3.18946364605904 0  0.3943295666266924 4.760259972853936 0  0.1995694826680899 1.174867288834947 0  0.8004305173319103 5.108318018344639 0  0.8004305173319103 2.745663615629843 0  0 2.945243112740431 0  0 4.123340357836604 0  0 4.516039439535327 0  0.2034871740651982 0.3856540082050465 0  0.8035684723479536 4.71238898038469 0  0 4.908738521234052 0  1 4.516039439535327 0  1 4.908738521234052 0  1 3.730641276137879 0  1 2.945243112740431 0  1 3.337942194439155 0  0 1.374446785945534 0  0 1.767145867644259 0  0 2.159844949342983 0  0 2.552544031041707 0  0.7021062843835106 1.178097245096172 0  1 0.5890486225480862 0  1 0.9817477042468103 0  1 1.374446785945534 0  1 1.767145867644259 0  1 2.159844949342983 0  1 2.552544031041707 0  0 3.337942194439155 0  0 3.730641276137879 0  0 0.5890486225480862 0  0 0.9817477042468103 0  0.7021062843835105 1.963495408493621 0  1 4.123340357836604 0  0 5.6941366846315 0  1 5.6941366846315 0  0.2978937156164896 5.105088062083414 0  0 5.301437602932776 0  1 5.301437602932776 0  0.2021062843835104 3.534291735288517 0  0.1964722357932691 0.1891760473873072 0  0.796702597745618 6.08531918795459 0  0.8064482983654102 0.7962901964420834 0  0.8087528499844582 2.370020769491235 0  0.7025427931712246 4.354297482962228 0  0.2974572068287752 1.998102992769883 0  0.625 0.1378534919926091 0  0.496143352252186 6.084538262763864 0  0.8144034105076877 5.877519541435063 0  0.5774006021242603 5.783198665785284 0  0.3718369256938374 1.307804345391459 0  0.6450968135218015 2.852909476411686 0  0.4145477883683976 3.92361202595673 0  0.8290318824224319 1.610442672122782 0  0.5805227627207411 2.118300356262823 0  0.4194772372792587 4.950283114314212 0  0.3637748578980042 0.447289360854724 0  0.5283678327657577 0.3720222457244603 0  0.6629194832055175 0.4743932562006103 0  0.1672717236502785 5.453434403533108 0  0.2198802804834704 4.735072911542187 0  0.2198802804834718 3.164276584747291 0  0.1879150944906916 3.908922032828858 0  0.142012679358922 5.988660995905542 0  0.138163444240352 2.84706834231575 0  0.165257344955771 0.7510045566335911 0  0.4273246838064977 4.470642647864493 0  0.4026654392667683 4.188104474879709 0  0.3989468578082448 5.233752918841702 0  0.1298605667713199 4.221515128261284 0  0.6462428598991699 6.154250677218862 0  0.8646271061400195 0.2945243112740431 0  0.8416172641688056 5.54082712745583 0  0.1489468578082448 5.03740337799234 0  0.1504281705561494 6.152634384452545 0  0.875 1.86532063806894 0  0.875 1.276272015520854 0  0.875 1.079922474671491 0  0.3504873174353653 1.111132991460325 0  0.6010531421917553 1.049432388337884 0  0.875 0 0  0.3510531421917552 3.466607051197443 0  0.8510531421917553 2.031180092584695 0  0.6495126825646348 2.681929318255221 0  0.3691580290425016 3.625028277270917 0  0.649512682564635 5.172052315719261 0  0.125 5.203262832508095 0  0.375 6.283185307179586 0  0.7839279204181739 0.1563637044515752 0  0.8538707553174308 4.040838484357445 0  0.2409756925643959 5.857047657111523 0  0.1634374127246059 4.4757418410105 0  0.1386745533220901 3.025914345133169 0  0.8554745637132645 0.4495647463942428 0  0.1418306463027942 4.058086928046424 0  0.4700848827229667 0.1527250560184294 0  0.8463672786512265 4.294842085815311 0  0.1445257937895293 2.016922958992457 0  0.4830487614606311 4.611381337484356 0  0.8317516324794463 3.534291735288517 0  0.6658758162397231 3.538325269595467 0  0.6582652272958575 3.003711552092525 0  0.4913469653894583 5.930896398705902 0  0.1084903051088018 5.59596191420682 0  0.3534402814895928 5.637728885370755 0  0.6427565519461826 5.652198323745465 0  0.1084903051088018 5.792311455056181 0  0.4796970726345142 0.7746861474379974 0  0.3781631611558586 1.725672538787547 0  0.8871530195977795 1.472621556370216 0  0.4051021260503146 2.624191638305807 0  0.5985949538043682 3.674150562061254 0  0.3062463071758733 2.465922735043564 0  0.6750510482219357 3.805521424724422 0  0.3813611346217575 1.87915513291836 0  0.1105013249541816 1.86532063806894 0  0.1105013249541816 2.650718801466388 0  0.7045160409228819 4.029962674268135 0  0.3594565803858318 0.5939334233221359 0  0.6752966103568662 3.261943031391539 0  0.1064151479552922 0.4920250022079638 0  0.1205503374990776 4.620883995285831 0  0.875 5.390824871628461 0  0.2932169165235926 6.146976130012801 0  0.875 2.238202108213444 0  0.125 0.8967223104285805 0  0.875 6.283185307179586 0  0.8973929370259213 0.6872233929727672 0  0.6793152234810124 5.032074436019135 0  0.8989468578082446 5.006913291658734 0  0.699677951790466 4.807643183761403 0  0.6896384089018468 4.606800886226513 0  0.8989468578082447 3.043417883165112 0  0.1010531421917553 2.258019719767664 0  0.3003220482095337 2.260940286815631 0  0.3284005674257514 1.446640374194668 0  0.1010531421917553 1.276272015520854 0  0.1010531421917553 1.472621556370216 0  0.8989468578082447 2.84706834231575 0  0.1010531421917552 3.632466505713198 0  0.125 3.411468012626165 0  0.503114258303747 2.254880057410185 0  0.4087559446333191 3.333666897078152 0  0.1009820410297165 3.239767424014474 0  0.1009820410297159 4.81056375080937 0  0.8990726109284465 5.98938556231502 0  0.1018199712944189 0.2909196675500268 0  0.1404104845037066 2.49904318833518 0  0.1404104845037066 1.713645024937732 0  0.9017842361739767 4.81056375080937 0  0.8989468578082447 4.611375646831739 0  0.09822195777849713 1.079922474671491 0  0.9017780422215026 5.203262832508095 0  0.875 2.62304641368445 0  0.6837074551898339 0.8602506000836451 0  0.32701751681494 0.1239531908332883 0  0.6335466806624721 1.298836255508408 0  0.6166648388038232 4.246902722367372 0  0.2660037396073622 4.195452018030332 0  0.6345528996087529 1.843001835701726 0  0.125 0 0  0.8989468578082447 4.422274430161062 0  0.875 0.9184749274368008 0  0.6239336430035929 0.6024569403311978 0  0.4322649306538569 4.056921102612868 0  1 2.454369260617026 0  0.8678017251058926 2.489745831986226 0  1 5.792311455056181 0  0.125 3.7870616596231 0  0.8841355193648618 3.408919278988369 0  1 3.632466505713198 0  0.5456457908270008 5.491082632358278 0  0.6173871091887357 5.300717172477549 0  0.4678744266241011 1.049432388337884 0  0.3644725537572592 0.9080983180035753 0  0.3675628370829533 5.36241777559999 0  0.4762596041471561 3.086415831392542 0  0.6943210690787561 5.834331570601361 0  0.8642503833636062 3.760505881579777 0  0.879296256624565 4.169776527352009 0  0.6987532964061935 2.435330428233673 0  0.5311381668
[...]
<PointData  Scalars="f_17"> 
<DataArray  type="Float64"  Name="f_17"  format="ascii">1.4038083514588464e-02  1.4038103515305997e-02  0.0000000000000000e+00  0.0000000000000000e+00  1.4038096523840230e-02  0.0000000000000000e+00  0.0000000000000000e+00  1.4038094667694116e-02  0.0000000000000000e+00  1.4038079529172572e-02  0.0000000000000000e+00  1.4038100829394157e-02  0.0000000000000000e+00  1.4038079432501245e-02  1.4038094498127476e-02  0.0000000000000000e+00  1.4038078788361530e-02  0.0000000000000000e+00  3.4459193324752301e-03  3.4292377479441115e-03  3.4439412311438014e-03  3.4808678342993665e-03  3.4530427054810502e-03  3.4024691225951940e-03  3.4178987034190768e-03  3.4274067118493083e-03  3.3973046488986768e-03  3.4418036388136172e-03  1.4038081730056967e-02  0.0000000000000000e+00  2.5684578355579710e-03  1.4038079286314646e-02  0.0000000000000000e+00  0.0000000000000000e+00  1.4038077315734244e-02  0.0000000000000000e+00  4.5302261531448571e-03  4.5109220753558393e-03  2.5832318320973447e-03  1.4038089884692795e-02  0.0000000000000000e+00  0.0000000000000000e+00  0.0000000000000000e+00  0.0000000000000000e+00  1.4038101914828835e-02  1.4038098390009180e-02  1.4038093601358338e-02  1.4038096218968257e-02  2.5627913431790625e-03  2.1667058067817518e-03  5.7327812632049519e-03  6.0348881933512078e-03  6.9548446886644336e-03  7.0841628022735754e-03  7.0060153885872561e-03  6.9618161907655856e-03  7.0151884663844592e-03  6.1334946173278162e-03  1.4402717176076837e-03  1.4154421972801601e-03  1.4194167321365427e-03  1.4192775123756387e-03  1.4225769408936363e-03  1.4329385742674324e-03  6.0111800724796010e-03  1.4128017250915469e-03  6.9930468911142147e-03  4.9343957637810708e-03  1.7871900029533944e-03  1.2048009501991579e-03  7.6989292560415172e-03  1.1183993573812450e-03  1.1129132355744700e-03  7.1098213982498035e-03  8.1154607905275841e-03  6.9681318245945999e-03  8.1995731861859659e-03  1.4257826377152658e-03  1.1181813866869312e-03  1.4193485769242141e-03  1.4271778826249826e-03  7.8148229048842534e-03  1.1880869787468773e-03  3.4118985801079734e-03  3.4298974562310797e-03  7.0633391392401317e-03  1.4225147689828840e-03  6.9385233645516643e-03  0.0000000000000000e+00  1.4038103235850648e-02  2.3448660535279157e-03  5.5036627007983008e-03  0.0000000000000000e+00  4.5843865059357900e-03  1.4038083258392677e-02  6.0394233450853973e-03  5.4480982278104348e-03  1.8845954400724002e-03  2.5829682879187207e-03  2.6097679078582632e-03  3.7590294663797964e-03  2.9327519157277358e-03  4.4338127768988236e-03  3.1311926593167384e-03  2.0611358063692938e-03  3.0990358008312216e-03  3.1334640153997634e-03  2.3792426896047012e-03  3.4399443394726036e-03  8.1428994030545102e-03  8.1892309365739595e-03  1.1202375524237264e-03  1.1168024760428630e-03  2.9207317226465448e-03  4.5807431768510798e-03  4.6616316246178239e-03  8.2405275445506070e-03  1.0920322649338398e-03  1.1056084714481213e-03  1.4038097576117105e-02  1.4038074781944142e-02  1.4038079214040234e-02  8.0641900964459039e-03  1.0812351478055521e-03  1.4038077537970506e-02  0.0000000000000000e+00  0.0000000000000000e+00  0.0000000000000000e+00  0.0000000000000000e+00  0.0000000000000000e+00  1.4038096557460300e-02  1.4038094289846946e-02  1.4038094225546109e-02  1.4038095693017609e-02  1.7550383763629551e-03  0.0000000000000000e+00  0.0000000000000000e+00  0.0000000000000000e+00  0.0000000000000000e+00  0.0000000000000000e+00  0.0000000000000000e+00  1.4038092014421320e-02  1.4038085618024653e-02  1.4038100978940990e-02  1.4038100152756023e-02  1.7508293339006697e-03  0.0000000000000000e+00  1.4038080479746619e-02  0.0000000000000000e+00  6.0718027051804967e-03  1.4038078909206716e-02  0.0000000000000000e+00  8.1893432808447155e-03  8.2743294916663487e-03  1.1175515428884051e-03  1.0692222749511884e-03  1.0617739632170552e-03  1.7488281607989423e-03  6.1832727296498987e-03  2.3387471747170776e-03  3.4542639325609668e-03  1.0112876322181956e-03  2.7130607415882502e-03  4.9471049375873913e-03  2.1756325385286356e-03  4.4107237186995834e-03  9.3232147710923109e-04  2.6980244456036584e-03  4.2895355444724148e-03  5.1324950151567664e-03  3.1852361809086914e-03  2.0454812175872326e-03  8.9925212416933839e-03  7.7001658954715287e-03  7.7488916701780892e-03  8.4632034539001977e-03  9.7544337816372253e-03  9.8699077879643073e-03  9.0522036023659332e-03  4.2327466894021516e-03  4.5198383218854384e-03  4.5206729166531361e-03  1.0120836960177865e-02  2.1495622385259909e-03  7.1834714609037118e-04  8.4983759100564545e-04  9.5452228223774603e-03  9.5005955042348003e-03  6.5690486587236820e-04  6.6049386104631439e-04  6.5583778390050130e-04  5.1792278905960290e-03  2.5171267824999378e-03  6.6074401568301988e-04  5.2256661975004347e-03  8.0038890503429444e-04  2.1451315859614211e-03  4.9586434059902297e-03  2.1085072087209710e-03  1.0267571357415434e-02  4.8900930451354942e-03  1.2138153732365506e-03  7.7965245938384350e-04  7.1701100555337325e-03  9.1080346226611146e-03  9.8545042138353939e-03  7.7884322641273349e-04  9.7597418987245190e-03  3.7788004181017430e-03  8.2197492004232634e-04  9.6778382371818343e-03  3.6294865707021768e-03  9.0678862428203639e-04  1.9995664570972549e-03  2.0756990477943400e-03  3.5063048849379359e-03  1.0765591221156032e-02  5.2026665876231141e-03  2.1743009412943672e-03  1.0765590203994469e-02  3.6316454642394197e-03  4.8218609360564484e-03  5.9059938570266938e-04  4.4912864889865073e-03  2.5392512419663490e-03  5.8854111045269905e-03  1.9485534070887299e-03  4.7385474751078533e-03  1.0704318803579327e-02  1.0704404640982492e-02  1.7302296227513349e-03  5.1477519172590152e-03  1.9323498036847503e-03  1.0827476821385584e-02  1.0401721529990004e-02  6.5538359168151395e-04  6.1678613098143419e-03  6.5874891728098372e-04  1.0266791065455961e-02  6.5398162181290085e-04  5.3167517324767002e-04  1.9015229733527587e-03  5.2453445708710168e-04  1.7631130197230938e-03  1.8424432427089766e-03  5.2540074922104716e-04  1.0989403561233105e-02  6.0452206747429382e-03  5.5648324385595372e-03  1.0989297166639111e-02  1.0989323477314379e-02  5.2888258767423495e-04  1.0989613346596011e-02  1.0267139350817404e-02  3.4328332378749651e-03  4.3980557827196561e-03  1.0991663841673769e-02  1.0992012197774471e-02  5.2158049501924066e-04  1.0966095601025501e-02  9.8020681036115505e-03  9.8019621961191721e-03  5.0915303376190672e-04  5.2726572502781064e-04  1.1074706291944302e-02  5.0796843136063127e-04  6.6307106778494193e-04  1.8860742295570684e-03  5.6196762367214095e-03  2.2514584640468201e-03  2.3963018248213475e-03  6.5640707450151190e-03  2.2463939789493974e-03  1.0266724809269686e-02  5.2824284087213901e-04  6.6208718228320286e-04  2.3288043189128352e-03  4.1697749174677634e-03  0.0000000000000000e+00  7.0212249342781153e-04  0.0000000000000000e+00  1.0267264197815526e-02  6.0866704424728055e-04  0.0000000000000000e+00  2.9723388105165564e-03  2.3694223544026435e-03  3.7758145184288139e-03  5.0146927575845952e-03  4.9841900543718875e-03  3.6806220691047741e-03  1.8015766040609291e-03  7.2143844657007110e-04  6.4080815380975886e-04  1.7827030953358582e-03  3.1282367117835899e-03  1.0267747509436700e-02  5.8902622769451685e-03  2.9141052112552851e-03  3.3158499486151986e-03  0.0000000000000000e+00  4.3043357837202773e-03  7.3301843712705187e-03  1.0300036064061401e-02  4.9059251093489563e-03  6.2322934812771092e-03  1.0267603703124590e-02  2.3203132501612911e-03  6.5730519939297138e-04  2.3287525399080648e-03  4.9097284652790119e-03  1.3294234384688824e-03  8.0464950555845620e-03  1.2401877876757454e-03  7.2962316545111747e-03  8.9925883054389635e-04  6.3849238789660389e-04  6.7425961451645601e-03  4.2290423237168586e-03  3.2836884635224538e-03  5.3281353546241013e-04  0.0000000000000000e+00  1.4038103503987718e-02  4.4274952050771072e-03  9.9832201416276203e-03  1.0827495694884920e-02  7.4848005634499100e-04  2.6648129009804802e-03  3.2661791936506790e-03  7.8980938260027646e-03  8.1946726030092745e-03  1.2344019977984860e-03  3.1740494299479596e-03  5.4160052461948017e-04  6.4611721457343216e-03  2.7685771022568921e-03  1.5177147655787290e-03  3.4537595897192832e-03  5.6665635000965019e-04  3.8798143950447496e-03  2.1774595765664748e-03  1.4558142617935898e-03  7.9203236408457549e-03  3.3396781194929329e-03  3.6624969586682441e-03  5.1444749848866171e-03  3.5823338792110443e-03  2.2272883380955685e-03  2.1532530652895875e-03  3.3251015918459282e-03  2.8738999069576748e-03  1.8961553809387201e-03  6.7319035261741078e-03  2.3250781965690921e-03  3.5419782717916724e-03  1.0760626568760897e-02  4.5101574138335715e-03  1.0642718264680379e-02  1.5595732432221660e-03  2.4625747552024430e-03  0.0000000000000000e+00  1.4418370959156277e-03  4.0987821207454896e-03  6.1593988457591181e-03  4.7953807681400794e-03  5.7849174325341817e-03  5.5902469813052451e-04  5.7454731955309292e-03  1.4200106953385938e-03  4.2340754847164132e-03  4.0871179005100228e-03  5.0130504277179366e-04  4.9969671926101240e-04  3.4021280759936462e-03  1.1308152028941063e-03  5.4871617161354443e-04  6.5176971053191078e-03  1.4038078077220626e-02  3.1783352656859702e-03  4.6734404201790583e-03  1.1520162111102420e-03  1.7932619193561537e-03  1.4038078407010950e-02  6.3942205013641073e-03  6.1234277987568930e-03  4.9706512659798514e-03  5.7319633158712307e-03  4.8543707172966103e-03  2.7515809229607048e-03  2.6031845011102684e-03  1.7906132083805742e-03  6.0198244461928249e-03  3.6392132890009322e-03  1.7570350532369688e-03  1.7631053193208968e-03  2.6558292437792587e-03  4.5567744040363187e-03  3.5937820287734192e-03  0.0000000000000000e+00  6.0345591633554638e-03  4.8854822108976050e-03  1.1154289361439578e-03  1.7276217728385793e-03  2.5236427998727245e-03  1.4038094091635724e-02  1.0989384019571568e-02  4.5513383658412733e-03  4.2562820135371316e-03  3.2704617929310308e-03  2.1427144184430714e-03  5.9426947151205263e-03  5.9816070137139205e-03  1.0989419378416916e-02  1.0989341964488152e-02  7.4945599647656671e-03  2.0731332544311649e-03  2.5800933309788935e-03  7.0550939499070186e-03  1.5369375164051872e-03  1.0775856094362068e-03  2.5222706475753515e-03  1.7457309630442978e-03  1.3190200552376889e-03  1.0470599784973783e-03  2.5347557677745710e-03  1.0989582002700735e-02  7.6568773172894927e-03  6.7240896170459906e-03  1.4199646064623720e-03  4.5802575388008224e-03  7.3780775101580627e-03  1.0928311731895256e-02  1.7956171368229033e-03  7.3734186668599350e-03  1.4038094691384964e-02  1.4038093779819632e-02  2.8393219213228515e-03  1.0999851601582098e-03  1.1108978797959761e-03  8.1748814519170265e-03  5.2226610055030372e-04  1.2514337158505231e-03  1.1028753552194662e-03  8.1821400859805379e-03  1.0954638474456904e-02  1.4038083503192562e-02  3.3197338107795434e-03  1.0470363163095750e-02  4.5971535008392968e-03  0.0000000000000000e+00  2.2583125915826238e-03  5.2874769483715707e-03  1.4038078553502076e-02  5.2035650481111406e-04  7.9603503152487227e-03  1.0820839145633133e-03  1.1806997495935822e-03  5.1300133740801604e-04  5.0921607593101012e-04  1.0978207503977266e-02  5.2746573387115012e-04  0.0000000000000000e+00  1.4038078467695014e-02  1.4038094296179736e-02  0.0000000000000000e+00  0.0000000000000000e+00  0.0000000000000000e+00  0.0000000000000000e+00  0.0000000000000000e+00  0.0000000000000000e+00  0.0000000000000000e+00  1.4038079370997809e-02  1.4038079596005977e-02  1.4038097870928697e-02  0.0000000000000000e+00  1.4038082470181148e-02  1.4038072930987872e-02  1.4038094203206114e-02  1.4038086182481290e-02  0.0000000000000000e+00  0.0000000000000000e+00  1.0903706425488192e-02  1.4038095546909414e-02  1.4038099194130765e-02  1.4038097408063227e-02  0.0000000000000000e+00  0.0000000000000000e+00  1.4038100413709363e-02  1.4038100502399354e-02  1.4038102554836212e-02  1.4038101390436982e-02  1.4038093914296442e-02  0.0000000000000000e+00  0.0000000000000000e+00  0.0000000000000000e+00  0.0000000000000000e+00  0.0000000000000000e+00  0.0000000000000000e+00  0.0000000000000000e+00  1.4038092074897798e-02  1.4038087685730236e-02  5.4515280829140768e-04  0.0000000000000000e+00  0.0000000000000000e+00  1.4038095924695992e-02  1.4038096758464872e-02  0.0000000000000000e+00  0.0000000000000000e+00  1.0469228031499729e-02  1.4038081111912782e-02  1.4038079109154170e-02  1.4038076072388989e-02  4.6211489764349340e-03  8.1089845988422651e-04  1.3104904677584417e-03  1.2241896234129346e-03  4.9807348532437425e-04  1.1439926389363907e-02  1.1451841110850812e-02  2.5528183396020220e-03  4.9098224364966408e-04  4.7918089514423293e-03  9.7206864106486827e-03  1.0263860966531570e-02  4.9752784817252993e-04  5.0358603480963379e-03  1.8055690002544403e-03  5.6697843086432988e-04  4.0212416357138557e-03  7.8511988309120390e-03  7.4882648066515248e-03  1.6518907800317311e-03  6.3422325100185384e-03  2.6449038222398900e-03  1.6914125787101542e-03  5.0674863916094492e-03  4.7260947661721692e-03  2.4678169263747012e-03  3.0487827869319583e-03  1.6999495792327185e-03  2.1442040607133153e-03  4.7391389074664817e-04  1.1918378127513797e-03  5.9608296309613578e-03  6.1236154406656340e-03  1.4081872854204806e-03  5.9879156543904844e-03  4.1062982223216763e-04  7.7139148063828109e-03  3.8528148180076165e-03  7.4654242211781930e-03  8.1144171334156488e-03  3.2786590785076602e-03  2.6370486476378764e-03  7.7464042342125054e-03  2.8799860495018724e-03  3.8676130699895400e-03  4.2844270779841759e-03  3.7236847938713633e-03  2.4852389552446298e-03  8.9882163265313133e-04  6.1285395915611817e-03  2.4454582358426798e-03  3.4854897719064880e-03  3.1422799298279113e-03  5.7709771723439265e-03  4.4613252298380127e-03  4.6281190749247953e-04  4.5128636958686637e-03  3.9214741223059924e-04  4.1689584358734931e-03  4.5525725072642989e-04  </DataArray> 
</PointData> 
</Piece>
</UnstructuredGrid>
</VTKFile>