<?xml version="1.0"?>
<VTKFile type="UnstructuredGrid"  version="0.1"  >
<UnstructuredGrid>
<Piece  NumberOfPoints="3873" NumberOfCells="7424">
<Points>
<DataArray  type="Float64"  NumberOfComponents="3"  format="ascii">0.0001 3.141592653589793 0  0.0001 0 0  1 0 0  1 3.141592653589793 0  1 1.570796326794897 0  0.0001 1.570796326794897 0  1 0.7853981633974483 0  0.0001 0.7853981633974483 0  0.0001 2.356194490192345 0  1 2.356194490192345 0  0.50005 0 0  0.50005 1.963495408493621 0  0.50005 3.141592653589793 0  0.50005 1.178097245096172 0  0.50005 2.478091176732636 0  0.50005 0.5518221953935506 0  0.0001 2.748893571891069 0  1 2.748893571891069 0  0.4043029915661778 1.570796326794897 0  0.0001 0.3926990816987241 0  0.0001 1.178097245096172 0  0.0001 1.963495408493621 0  1 0.3926990816987241 0  1 1.178097245096172 0  1 1.963495408493621 0  0.6436705126507334 2.809841915161214 0  0.313867646641764 2.864027914704857 0  0.250075 0.9817477042468103 0  0.31256875 0.2759110976967753 0  0.7500249999999999 1.374446785945534 0  0.7021514957830888 1.706197524374113 0  0.68753125 0.2759110976967753 0  0.6582907584338221 0.8649597202448616 0  0.250075 2.159844949342983 0  0.7021514957830889 2.220793292613128 0  0.7830382159985875 2.552544031041707 0  0.2170617840014127 2.552544031041707 0  0.250075 1.816421800599144 0  0.2022014957830889 1.374446785945534 0  0.7871960524183051 0.5890486225480862 0  0.2129039475816948 0.5890486225480862 0  0.7500249999999999 1.97516781880888 0  0.7500249999999999 0 0  0.7500249999999999 1.117148901826027 0  0.7500249999999999 3.141592653589793 0  0.250075 3.141592653589793 0  0.250075 0 0  0.4162390824856539 0.7907265769041518 0  1 2.945243112740431 0  0.4686831037823826 2.245431259090571 0  0.3984510347182807 2.66695524584766 0  0.0001 2.945243112740431 0  1 0.1963495408493621 0  0.0001 0.1963495408493621 0  1 0.9817477042468103 0  0.4088871947985142 1.363892085770187 0  0.5000499999999999 1.755473457328999 0  0.2022014957830889 1.576632531952526 0  0.6057514651230198 1.522956878131032 0  0.3238495001364742 2.38340191027742 0  0.448433482100856 0.9865129807082104 0  0.1996666676871971 1.174870124469714 0  0.2186322789003933 0.7866151651361794 0  1 1.767145867644259 0  1 2.159844949342983 0  1 0.5890486225480862 0  0.0001 1.374446785945534 0  0.0001 2.552544031041707 0  1 2.552544031041707 0  0.0001 1.767145867644259 0  0.0001 2.159844949342983 0  1 1.374446785945534 0  0.0001 0.5890486225480862 0  0.0001 0.9817477042468103 0  0.7966929831277501 2.943708349109411 0  0.50005 0.2016521877204335 0  0.6123036164331159 2.626457930474035 0  0.4961884210211235 2.942957665418523 0  0.8144051122162048 2.735928015728886 0  0.8204666319118807 0.9487468054196759 0  0.81099483525996 0.7682351207937744 0  0.6290027804260637 0.6832086773957431 0  0.4609517922159575 0.376737191556992 0  0.1828489469069698 1.988133374971064 0  0.6707845995654717 2.404177277300307 0  0.5805791125952847 1.332872531841999 0  0.7802433305065121 1.548137039274974 0  0.1836815383840006 2.733703310360552 0  0.6582432719922414 0.4576621405458937 0  0.8226078739659392 0.3909131052819032 0  0.1414659540326779 0.294524311274043 0  0.6301667383861228 1.85948443291131 0  0.8290802781932748 2.336878380360784 0  0.6007984108517967 1.048208290634836 0  0.30540061264058 0.4460589590468574 0  0.5728801724750299 2.114310955316 0  0.8337119322820196 1.82152693947121 0  0.1668953998307583 2.311245867967377 0  0.1540887860261057 2.893450796318837 0  0.8248876613113414 0.1619893151238729 0  0.6462674731248702 3.012677912802138 0  0.3750625 0 0  0.6250374999999999 0 0  0.3451613310667793 2.023602635333791 0  0.8750125 1.276272015520853 0  0.1250875 0 0  0.3750625 3.141592653589793 0  0.18758125 0.1442422890270057 0  0.3462307409979689 1.10998597454748 0  0.879324185655443 2.061670178918302 0  0.8788305767441811 1.668971097219578 0  0.1444729022658622 0.4497208988856661 0  0.361211039858802 2.525162589124743 0  0.1250875 0.9017880561397784 0  0.4477524140051871 2.804803233744539 0  0.1085808920007063 2.454369260617026 0  0.1250875 3.141592653589793 0  0.3063364088201761 1.680515745009675 0  0.3929920784377063 1.85948443291131 0  0.1098957775684681 0.6909016029551854 0  0.3653287165263744 0.6387133281215776 0  0.1114136863832214 1.86115058892234 0  0.2557143057534883 2.996775639219902 0  0.8897534822902359 1.07666281157757 0  0.8750125 3.141592653589793 0  0.6838542721013225 0.131710978509034 0  0.3294735604780377 0.134707077140648 0  0.3209708651324263 1.250903285802515 0  0.1011507478915444 1.276272015520854 0  0.1011507478915444 1.472621556370216 0  0.3004171924085279 1.47553965894903 0  0.8990763363416723 1.472621556370215 0  0.865911023721843 2.201411917429707 0  0.8990763650761613 2.847790871134235 0  0.1404942740800562 1.713625834471282 0  0.09832187733145763 1.079922474671491 0  1 2.454369260617026 0  0.6388377108131158 1.204223589782245 0  1 0.4908738521234052 0  0.8932196219971033 0.2771430607716678 0  1 2.650718801466388 0  0.8935980262091526 0.6660904436458346 0  0.1085808920007063 2.626210386255747 0  0.5473777159624333 2.353266137779173 0  0.5238156147425114 1.625993144692569 0  0.4403119165206222 2.115924419553056 0  0.4961635522052268 0.6846119740641458 0  0.3512283401702931 0.9019568719338867 0  0.5232084261945064 0.8736770960774308 0  0.4865608326523443 1.469115939909359 0  0.0001 2.061670178918302 0  0.1255491744100717 2.109582037463674 0  0.7573684529074916 2.104077207672804 0  0.6237572635273158 1.996749011053814 0  0.8750125 0 0  0.6250374999999999 3.141592653589793 0  0.1089083249092491 3.013936057506498 0  0.5662391073708588 0.3083408776361583 0  0.7568728815825815 1.240418992382508 0  0.3760680147799352 2.970387884139288 0  0.8674583689930622 1.939520581926012 0  0.8984750585563868 0.8541492086001128 0  0.5159738951472362 2.702663476643143 0  0.7124534596733288 1.002499228120676 0  0.8712328805957233 2.458625004572679 0  0.8784081411761074 2.630606057494734 0  0.5682351311878405 0.1043537099711881 0  0.2789599587339176 2.274264211115638 0  0.5852010535502201 2.23106313513937 0  0.8764385285184018 0.5027662550473762 0  0.897790426545084 3.018136533065701 0  1 0.09817477042468103 0  0.0001 0.09817477042468103 0  0.6686420929016731 2.522446954891724 0  0.7266997395300303 2.656555006624018 0  0.2966781539516079 1.920443639398794 0  0.6161269010940069 0.5668707334685418 0  0.2146526260367216 2.414145768133129 0  0.3580218735372008 2.193449546206159 0  0.4375943946845662 2.38302625408493 0  0.09718336524035154 2.220468181643818 0  0.485417983859572 2.591979411670259 0  0.2777166123916075 2.657375181736024 0  0.2231772956223172 0.3705685702321999 0  0.4134189290644774 0.4792597581784567 0  0.5635078774511729 0.7714455678042642 0  1 1.86532063806894 0  0.4411956189342488 0.1008260938602168 0  0.3489529107964599 2.762398587934793 0  0.546314612673972 0.4495828416093093 0  0.1065019737908474 0.5548392573440907 0  0.1133092801595398 0.7966461159998642 0  0.4558636266752543 3.043096632477177 0  0.09676593826196477 2.800217179025625 0  0.7946120952879669 2.838885867462732 0  0.3184704182586279 0.7389382744261054 0  0.41745563104718 1.681136140614403 0  0.6070078636114382 1.755063077244438 0  0.4970464131646254 1.85948443291131 0  0.7663604658538505 2.448513674832494 0  0.7264673036432115 1.811162185064712 0  0.6838637344022659 1.598840833492821 0  0.702131061227266 1.472253083913186 0  0.3047798890685416 1.354199596256586 0  0.4833081090229716 1.285145170208883 0  0.7904728559163801 0.2602618642236435 0  1 2.258019719767664 0  0.748327012060599 3.036747092283478 0  0.7059193518673514 2.893078450374415 0  0.6003612624103871 2.915105728919009 0  0.8420796692877984 1.173491045015097 0  0.3033365114592679 1.576632531952526 0  0.1011507478915444 1.573714429373712 0  0.3098227683742511 0.5503313431497306 0  0.6050333868759279 0.210397075110954 0  0.396636965874758 0.2143617400479069 0  0.7720730134062289 0.4841135013771994 0  0.7382169417515795 0.6867274934398225 0  0.0001 1.668971097219578 0  0.3794283542702952 2.296741081808273 0  0.2217662352816454 1.27439386551203 0  0.2008558061950209 1.072040571755609 0  0.2007839701500362 1.474080607659623 0  0.6775948840653665 1.30355727811195 0  0.340700909146096 1.774340086983184 0  0.447258223415787 1.089574996080853 0  0.3488034284277409 1.002895782063745 0  0.8542342206342519 1.378467876193278 0  0.208916385809148 0.6880305558439128 0  0.2528138930032925 0.8812068380068848 0  0.8772890837053948 1.569593603899276 0  0.08651740710324034 2.012582793705961 0  0.1015177450167185 1.178071579430421 0  0.0001 3.043417883165112 0  0.0001 2.454369260617026 0  1 3.043417883165112 0  0.0001 2.258019719767664 0  1 0.6872233929727672 0  1 0.2945243112740431 0  1 1.472621556370215 0  0.1039857991576499 1.374446785945534 0  0.0001 1.472621556370215 0  0.0001 1.079922474671491 0  0.0001 1.276272015520854 0  0.0001 1.86532063806894 0  0.0001 0.4908738521234052 0  0.0001 0.6872233929727672 0  0.0001 0.8835729338221293 0  1 0.8835729338221293 0  1 1.079922474671491 0  1 1.276272015520854 0  0.0001 0.2945243112740431 0  1 1.668971097219578 0  0.0001 2.650718801466388 0  1 2.84706834231575 0  1 2.061670178918302 0  0.0001 2.84706834231575 0  0.5451068732179182 2.830830737605905 0  0.7130243457102929 0.7824672649853621 0  0.774402309741327 0.8606595453090997 0  0.5625437499999999 3.065095569948818 0  0.1021653426598387 0.2002481465025056 0  0.4016220123158371 1.192637648098719 0  0.6507405351676969 2.306374275978375 0  0.09989367896045695 0.0965743806061498 0  0.5956958435463691 0.9459643122865043 0  0.5758950595431839 1.430201754441473 0  0.18758125 3.068818635454755 0  0.9189961566149346 2.307107104980004 0  0.9086199155480861 0.7597934945213625 0  0.3317103763829294 3.055732701676626 0  0.9187046178076601 0.1472621556370216 0  0.1569986662380156 0.9895725013796508 0  0.3936880763177102 1.47809618029627 0  0.5944280602888595 2.461948290387623 0  0.6503432002534183 2.714326019711334 0  0.9086901920561082 2.721116093962
[...]
<PointData  Scalars="f_17"> 
<DataArray  type="Float64"  Name="f_17"  format="ascii">5.6100874829084568e-01  5.6100849826995458e-01  0.0000000000000000e+00  0.0000000000000000e+00  0.0000000000000000e+00  5.6100931976853985e-01  0.0000000000000000e+00  5.6100584773226581e-01  5.6101284277442964e-01  0.0000000000000000e+00  2.3247356886656767e-01  2.3309480783752812e-01  2.3307772137583807e-01  2.3309411319148793e-01  2.3416486744089279e-01  2.3339153056213099e-01  5.6101131229862478e-01  0.0000000000000000e+00  3.4079374789599332e-01  5.6100693806633972e-01  5.6100525446646576e-01  5.6101046078664196e-01  0.0000000000000000e+00  0.0000000000000000e+00  0.0000000000000000e+00  1.1016096822519313e-01  4.2291446323215420e-01  4.6747921923229335e-01  4.2359674233644656e-01  6.0483217621605689e-02  7.9942230525537977e-02  8.6832306601740517e-02  1.0159463587686950e-01  4.6812964594939815e-01  8.0244709188999189e-02  4.9141192675973493e-02  4.8731839694561863e-01  4.6785205944329217e-01  4.9516317012629457e-01  4.7709511763270582e-02  4.8919395456893466e-01  6.0580425864744207e-02  6.0359037325592023e-02  6.0483163389330130e-02  6.0529646242392772e-02  4.6812156125709381e-01  4.6763552004174086e-01  3.2873205503993824e-01  0.0000000000000000e+00  2.7133352621559004e-01  3.4770664072622920e-01  5.6100870003130077e-01  0.0000000000000000e+00  5.6100787805986529e-01  0.0000000000000000e+00  3.3614622319631499e-01  2.3285452335147888e-01  4.9501461550369541e-01  1.3395729014321969e-01  4.1507927428338814e-01  2.9393930918185202e-01  4.9603700709037302e-01  4.8627076482680925e-01  0.0000000000000000e+00  0.0000000000000000e+00  0.0000000000000000e+00  5.6100748471219852e-01  5.6101288936619320e-01  0.0000000000000000e+00  5.6101037495604378e-01  5.6101245253901566e-01  0.0000000000000000e+00  5.6100635139195032e-01  5.6100500176749768e-01  4.4870458062024006e-02  2.3232873719276032e-01  1.2996881079868494e-01  2.3790935264859361e-01  3.9568061833692970e-02  3.7812869988908059e-02  4.0535157215992386e-02  1.1877665043777998e-01  2.7987503370974909e-01  5.0467762191060117e-01  9.5251050492014738e-02  1.5323861196840730e-01  4.9928562092768372e-02  5.0446494656784702e-01  1.0154395160607134e-01  3.7177321546859383e-02  5.2209076535863219e-01  1.1791912856417346e-01  3.5436903857303248e-02  1.3782768181516272e-01  4.2935361667365218e-01  1.5920593386372192e-01  3.4138738557150994e-02  5.1169178194415144e-01  5.1712106271584968e-01  3.6489807835810094e-02  1.0857753120670924e-01  3.6957400975334292e-01  1.2123627897749341e-01  3.9675318802534687e-01  2.3737103113376970e-02  5.2719467061510561e-01  3.6986248418340839e-01  5.0215746598501243e-01  3.9566675767593662e-01  2.2819084328376642e-02  2.2902011849993690e-02  5.2079831165882529e-01  3.8272073534253809e-01  5.2816515328507141e-01  2.9509944084663520e-01  5.3281228876881026e-01  5.2792344232807864e-01  4.2834737970526532e-01  3.5252916013365393e-01  5.3251083723203452e-01  3.7850658743655285e-01  5.3184560974147332e-01  4.6448459038467854e-01  2.0444422083516579e-02  2.3855517261305918e-02  8.8263955771801697e-02  4.0984938948806143e-01  4.1683417180921728e-01  5.3543091350492067e-01  5.3509586904153239e-01  4.3260839486418123e-01  1.8467993812235545e-02  2.6018139834866005e-02  1.8478902716941574e-02  5.2204190757713320e-01  5.3608387453997408e-01  0.0000000000000000e+00  1.1272341446612000e-01  0.0000000000000000e+00  1.9695320342352537e-02  0.0000000000000000e+00  1.9639450084561288e-02  5.3310932932769040e-01  1.8248567357992659e-01  2.0509371171137122e-01  3.0343215420948255e-01  2.3741155852414061e-01  3.9117901510896685e-01  2.0616636975956021e-01  2.4966219409453766e-01  5.6101253885407043e-01  5.2760530570631015e-01  5.7894206682258059e-02  1.2209616365052478e-01  2.3800367065013529e-02  1.2134187681205755e-01  5.3310054650735994e-01  1.6463025790603161e-01  5.7865386738708391e-02  3.6879744345174664e-01  2.5554585468807085e-02  1.8555418391738639e-02  2.1502498873943141e-01  7.5349886458804125e-02  2.4751584173230968e-02  2.3065881960766008e-02  1.6261447731470788e-01  4.4906641389949692e-01  1.4955642565765176e-01  2.3467501587137528e-02  1.8737176101879409e-02  0.0000000000000000e+00  5.6100835858685116e-01  9.6412263114115535e-02  6.9677563183802319e-02  4.3595102897986998e-01  1.2711724756922577e-01  4.8856222392749493e-01  3.8553654096763473e-01  3.0673482292790805e-01  5.3666788712533064e-01  2.5179638546043803e-01  4.4990064910331479e-01  4.8358818092125511e-01  3.3191085114563118e-01  1.6702403529573934e-01  0.0000000000000000e+00  3.0173436898327310e-01  3.9378435239787973e-01  1.8293031578891147e-01  5.3354092784397911e-01  5.3131033876250722e-01  2.8578837927518125e-01  5.3690709065098929e-01  4.5487421924661160e-02  4.1875225153546286e-01  3.2760185684269033e-01  1.3343152999193142e-01  2.3703879046825330e-01  5.4823024621409797e-02  6.9577427350853108e-02  8.8415148380456179e-02  7.9825184482815753e-02  4.2960940857996360e-01  2.5302555209576133e-01  4.6628715398692351e-02  0.0000000000000000e+00  6.1230375898182657e-02  7.8460842074250775e-02  1.3823197249286190e-01  3.1891813120255623e-02  4.3038269291274356e-01  5.3504941015957141e-01  4.2573684398007927e-01  1.3442301644094620e-01  3.4863156287272734e-01  5.2690620186177428e-02  6.4859680408751536e-02  5.6100953767248884e-01  3.6601903755394255e-01  4.8448750487937892e-01  4.9546325516040829e-01  4.9585118634062930e-01  9.1652691225876423e-02  4.0063732991690409e-01  2.9540596895696336e-01  3.9326238104862349e-01  2.8796520917381160e-02  4.9128195807378483e-01  4.6577999732944730e-01  2.3307502963315806e-02  5.3948480473776872e-01  5.3523671510316129e-01  5.6100874316057725e-01  5.6101323874578557e-01  0.0000000000000000e+00  5.6101291921116092e-01  0.0000000000000000e+00  0.0000000000000000e+00  0.0000000000000000e+00  5.3440919333293191e-01  5.6100873197899559e-01  5.6100448008890846e-01  5.6100620440657645e-01  5.6101035412367861e-01  5.6100663300011611e-01  5.6100604611919735e-01  5.6100542927574049e-01  0.0000000000000000e+00  0.0000000000000000e+00  0.0000000000000000e+00  5.6100728734188265e-01  0.0000000000000000e+00  5.6101226477776078e-01  0.0000000000000000e+00  0.0000000000000000e+00  5.6100914648878908e-01  1.8428797626005169e-01  7.5228218691726134e-02  5.1887239939032027e-02  1.6805114356208012e-01  5.3450162786635402e-01  3.4389800568070539e-01  1.0597831797501391e-01  5.3521086191375722e-01  1.4127086663023170e-01  1.5694287332525092e-01  5.0232437299542110e-01  1.4345342748847682e-02  1.6461801009324536e-02  4.0852618405534324e-01  1.4376813000817199e-02  5.1544458683614702e-01  3.5148928163050930e-01  1.4283797954202768e-01  1.0650509116549989e-01  1.6488592303694614e-02  6.8699122762453949e-02  4.1684865344038702e-02  9.7539478242778782e-02  4.9634760642558623e-01  4.6698880100541429e-01  4.8333711486785108e-01  1.0873018361655910e-01  4.4199811722797694e-01  1.5389092733559300e-02  4.2642418785518998e-02  4.8439305212766831e-01  6.3221157953650631e-02  4.9427218117398003e-02  3.9681862455885522e-02  3.2399901011091409e-01  2.3324573106109073e-01  3.8185618143493394e-01  2.5868007758722233e-01  6.4983208931959441e-02  3.9989501309388185e-02  1.5877048256598400e-02  7.8374375110809011e-02  1.7030534277364448e-01  4.6692973420633992e-02  1.7056952894505976e-02  5.4110025359213831e-01  3.0435064874037937e-01  1.2412200567220873e-01  5.3812494906963249e-01  5.0237644892834366e-01  1.6572339196300578e-02  5.3773714380569304e-01  5.0069088624733149e-01  1.5794866380990251e-02  5.3944430923631714e-01  8.2623492039201829e-02  3.6565869231696979e-01  9.9590688667817701e-02  1.5274499895077709e-02  4.1344040782309943e-01  4.7716716882320898e-01  1.6605187513280617e-01  4.7993081199735699e-01  1.7915347526240533e-01  4.5688882968007927e-01  2.1075351644367094e-01  1.8168514938991015e-01  6.8467002445124464e-02  1.6680394254097194e-01  7.8884130985605955e-02  3.3133940494729713e-01  4.0258702602083590e-01  3.1403829680245526e-01  3.4469091305178112e-01  4.9741523845243461e-02  1.3561207304132624e-02  3.5671920655868952e-02  9.1412962716178506e-02  1.9750562111019429e-01  1.9680104766882919e-01  2.4833621616511196e-02  4.4749118337677024e-01  4.7444027988911147e-01  5.4055179081131888e-01  8.6846397662311947e-02  3.2807890061035438e-01  2.5027634432511331e-01  1.2781047558834632e-01  3.2508922033867316e-01  3.3002925121315052e-01  4.4346231438171263e-01  4.4359110803152957e-01  3.4206547712628842e-02  4.2426908740326001e-02  1.2890360837031703e-02  1.0739555464556462e-02  5.4596229303507937e-01  1.3149319415645913e-02  1.0714972085052071e-02  1.4532971422652516e-02  4.0240568498961599e-02  4.6457780865255116e-01  5.0848812772318330e-01  5.4168525444149329e-01  1.5329768739040844e-01  3.8523763820798300e-02  4.3632221330674675e-01  8.7678390325221345e-02  1.0588065369717126e-02  1.2945100142586999e-02  4.3075767923497293e-02  1.0316027974222312e-02  6.2428795898665547e-02  1.5932781288139949e-01  4.9815730087539617e-01  4.6512528625726829e-01  4.2296029939468266e-02  5.4263849621615368e-01  3.4558613273072752e-01  3.9093926733729301e-01  1.6722792961567187e-01  1.0769342710199687e-02  1.7824691354550590e-01  9.8063921098661758e-03  5.3970662199540176e-01  5.1101344526132042e-01  5.4451965178789663e-01  1.1371182999899365e-01  7.6515123082409209e-02  9.5133527065600187e-02  5.4356857510204859e-01  4.2703630871363052e-01  4.1860537103032341e-01  4.2358143816143984e-01  2.4189654656059081e-01  4.6081438354768112e-01  5.0432009716858783e-01  5.0571246878036491e-01  6.5662657285651238e-02  5.4061102620572477e-01  5.2072022055937839e-01  3.8147474772706863e-01  5.5223018720997268e-02  3.7756905550493891e-01  4.6313512683403746e-01  3.6655449236014398e-01  3.2731938189858195e-01  5.0556570118495636e-01  7.4925656652296141e-02  1.2048340088641116e-02  1.1188047574082767e-02  2.9671426237463683e-01  5.4777738735489645e-01  4.6155052707039279e-01  5.1428589369543831e-01  2.9398822435673910e-01  4.9680875351107501e-01  1.1411014335957553e-01  2.7260259082201754e-01  5.3649470932569721e-01  1.1832677015296195e-01  5.4425605747856920e-01  1.2928715380320144e-01  1.9340566613785679e-01  3.7215561825913057e-01  4.1590692216950248e-01  5.4693100669045347e-01  8.6406983652851359e-03  5.1778046030752678e-01  5.4328250477786255e-01  8.5882596285547490e-03  7.6174165262076182e-02  5.4806881636525662e-01  2.9495677280212118e-01  4.6778950677670184e-01  4.6667921794286299e-01  5.1847613463905140e-01  5.4797356389271612e-01  5.4826060638453111e-01  5.1718301105967157e-01  5.4845157654297760e-01  5.4829055396362736e-01  8.4890418292526484e-03  1.0691591113946516e-02  1.4623436412344351e-01  3.1757312050421482e-02  2.5049993729216586e-02  5.4871397556067247e-01  5.1783564465899601e-01  5.1908470599420353e-01  5.4877412595392716e-01  5.4557204520702851e-01  4.3982674083130535e-01  3.5932525182964567e-02  5.0930730031256199e-01  2.4640495481960045e-01  1.1827175770245427e-01  1.6738033705205704e-01  2.6293825375117014e-01  5.0624862443816931e-01  5.4437603075330832e-01  5.3745093785050690e-01  3.6147057404458956e-02  2.3731690229898483e-01  1.0286339423390418e-01  2.2554621799242461e-01  5.4394690648339361e-01  5.6733780150458067e-02  2.5179159481427049e-01  1.4825182243348764e-01  1.8917299808295332e-01  3.4137214738651910e-02  5.4514856668899059e-01  5.0560632695562580e-01  8.6678366590491523e-02  1.7717387404214430e-01  3.0078893942632155e-02  1.1759033706781720e-02  1.0202780714779690e-02  4.6616641384775531e-01  3.9150335573000472e-01  4.9133610698238445e-01  1.9733202324482224e-01  1.3646530258244333e-01  2.2981034008513546e-01  2.5301683873184842e-02  1.1306956823198755e-01  1.6778570147206892e-01  5.1537223456021686e-01  1.2667297949005651e-01  3.6079264442884479e-01  2.8884283311770947e-01  1.3465658451437232e-01  9.3437639593245345e-02  5.1586481095970138e-01  2.4936532482021118e-02  2.8780407644350825e-01  4.4334653107511562e-01  2.1609993746015976e-01  0.0000000000000000e+00  1.1215107452988194e-02  3.2946671801507767e-02  4.6549654313591537e-01  4.7406287315769891e-01  3.5697217119587416e-01  5.1835875301753542e-01  5.4916574107543714e-01  0.0000000000000000e+00  8.2642348971899052e-02  1.8038918996827266e-01  2.9534578030156294e-01  1.0961091335121685e-02  0.0000000000000000e+00  9.5977272748782858e-02  5.2136263692401230e-01  1.6950256532898323e-02  3.4552028044006450e-02  5.1333237422004208e-01  3.9049032417409912e-01  8.8139336065622256e-02  2.2135929904671883e-01  3.1584669819579414e-02  1.0940806033471062e-02  3.4889331419764341e-01  4.3829573588592580e-01  5.6100873360125292e-01  5.6101320347613537e-01  3.5073818006699536e-01  1.0800515366873437e-01  9.4180421783247106e-02  1.1160317823775640e-01  5.6995843458242802e-02  5.2198416645771550e-01  6.3569244067859590e-02  1.6340592694156642e-01  3.4908945156316956e-01  2.2782485228160090e-01  2.3573883375553856e-01  3.0552617894266243e-01  1.7231003378099383e-01  1.2464422476104835e-01  3.7468245135025657e-01  7.1042188518060823e-02  4.1767459166750620e-01  8.3782656198436278e-02  1.0716851373124756e-02  1.0675429627444818e-02  3.7663523495543738e-01  1.1845440647298852e-01  1.7992273529265485e-01  8.2969946642061018e-03  5.2247429861640637e-01  5.1545561455374989e-01  4.0071930013275033e-02  4.0015984907323950e-02  1.0711628539739653e-02  3.0623624444196734e-01  5.0213430968271355e-01  5.0257144165133760e-01  4.2407924666695823e-01  1.6785430495932085e-01  1.6769002803700533e-01  1.6820437769513569e-01  2.9791958829537984e-01  1.3651688673929052e-02  2.2939464516252697e-02  9.7239052907833065e-02  3.3724837264561353e-02  5.4594677437131212e-01  4.4648024153819199e-01  4.6517784219028740e-01  3.5914680926287912e-02  2.8676510187210482e-02  7.8189554458732949e-02  3.9528656745518159e-01  2.7829688238372591e-01  5.1241189477930021e-02  3.7138561867132304e-02  2.9577304932230664e-01  5.2539588339794462e-02  3.6677893072499607e-02  3.0912279066069975e-01  3.2734870521559593e-02  2.7512749683585302e-01  1.0581787097676375e-01  2.8422303621353607e-02  2.9196011357379176e-02  4.1227593875602271e-02  5.4818194497108108e-01  2.3946258723315778e-01  9.6107001535270242e-03  3.0178690176007751e-02  8.0624634480420454e-02  7.9612836840247517e-02  3.4121202853071081e-01  3.8335112699630147e-01  2.9941023729007810e-01  0.0000000000000000e+00  2.8494457817488054e-02  7.3842686439207050e-02  4.7193920567775638e-01  1.4443759385974803e-01  4.7153086810345435e-01  5.4775119025825758e-01  3.8204963000091052e-01  6.2339076988492052e-02  6.2783698250624131e-02  5.6100719811914890e-01  4.4085468193223493e-01  4.7942005469304744e-01  4.2134382249588931e-01  5.4685856494887497e-01  1.8290650957719420e-01  2.4600855360748694e-01  3.1960222868718818e-01  3.5440728465984117e-01  3.6636015146899176e-01  1.2174359013606884e-01  5.9082645784289935e-02  9.4154801862346996e-02  4.8742492428471801e-01  2.3973447159844310e-02  4.6932193204996503e-01  4.8335906680118040e-01  4.1709269985382114e-01  2.2505370143407963e-01  3.0835922330109439e-01  4.2298694192425162e-01  3.9984372713500910e-01  1.4874999036819567e-01  6.0180544726918694e-02  5.4886357588255574e-01  1.1997386719774987e-01  1.2284632624332238e-01  7.5854480830584492e-02  0.0000000000000000e+00  1.0078213288054184e-02  5.8001980068694795e-02  5.6101286972643183e-01  0.0000000000000000e+00  5.6100874522329525e-01  5.4896613426935637e-01  7.3406984189588187e-02  1.0858449253929642e-02  3.1590128952432496e-02  4.0548840766900857e-01  2.8076069698871328e-02  4.6937061804358332e-01  5.2497829539149976e-01  5.6101237046100916e-01  4.1200809455549187e-01  3.9376306440950287e-01  4.5665920985869529e-01  1.3737182240910492e-01  5.4708130689033097e-01  3.6490914533229551e-01  5.4823673871159773e-02  5.2106082141798488e-02  4.5487744926395374e-01  9.6967063052819848e-03  4.3418913379448915e-01  4.0430431233680969e-01  2.9142151896059110e-01  5.2176433135171074e-01  5.4856476880862282e-01  2.9705531924987139e-01  1.0460151569500385e-01  2.2339233423731891e-01  9.5915681340439200e-03  5.2766457373194531e-01  5.4823494157928732e-01  2.8627897958739847e-02  1.3003235043829497e-01  1.0254439545214186e-01  5.4703464324782403e-01  1.4591464384047942e-01  5.3275489501922380e-01  3.0665961691392640e-01  3.6893148593770037e-01  3.8724022058797575e-01  4.7552206619818155e-01  2.6730482906317321e-01  9.4473719108159448e-03  4.6752738895537577e-01  1.0297472141835021e-02  2.1198961609674177e-01  5.4727161258235679e-01  5.6100479235020173e-01  5.4827136005786692e-01  2.4604093529808962e-01  9.3859646951704762e-02  2.2680050361928338e-02  6.2249130673507083e-02  7.0534207508480773e-02  4.5610082700013682e-02  5.0700704388199999e-02  5.2673666878411185e-01  5.4772702039319299e-01  5.2895939942109937e-01  5.2724285334699650e-01  5.1110565128688862e-02  6.2728698612233291e-02  8.8539767430959454e-02  4.5027804637511842e-01  6.8625658303675396e-02  2.2872553635536250e-01  6.0253938428243260e-02  2.1896066238282278e-02  5.2313151786074452e-01  5.6101171108148540e-01  4.2943195855752836e-01  3.4225846931448667e-01  2.2726741526635719e-01  3.0571615956361287e-01  2.0556961014350486e-01  5.1292399679709966e-01  1.3320096556119407e-01  9.1392723465159240e-03  5.4837784976378379e-01  9.4186499294925216e-02  5.2889285167717015e-01  5.7821814331518118e-02  5.6101071987082174e-01  3.5303718065130590e-01  3.1928196124163544e-01  4.6289306004515934e-01  4.7298421361964149e-01  2.0819133779592460e-02  6.3005598580721564e-02  1.2739478982878180e-01  1.7620797825512038e-01  1.0824001487197830e-01  2.1117653500010422e-02  1.0809421982694005e-01  0.0000000000000000e+00  9.9154352970709150e-03  5.3735893518473321e-01  5.1201308747247443e-01  0.0000000000000000e+00  5.2038790941865608e-02  1.8660505046656320e-01  4.4495924969235580e-02  2.8209661228164246e-01  6.0923103930119626e-02  1.7587886237802131e-01  5.2648107318037152e-01  5.1170731941792391e-01  5.3305877058161166e-01  5.6101248106846979e-01  3.8473777878234078e-01  1.8834880962003783e-01  7.0325547125094326e-02  1.1110563247007352e-01  8.9243123013474941e-03  4.5320106610841321e-01  4.2771515644389252e-01  5.6100869385464514e-01  3.5371896769730982e-01  0.0000000000000000e+00  2.3664645517380376e-02  8.1982766603265006e-02  5.6283077481681869e-02  4.4084930680591600e-01  4.8760352984302681e-02  3.0606723033930566e-02  4.6897659880943118e-02  8.1079913166267031e-02  5.2181244714080477e-01  3.8633880107136448e-01  1.4264824816191207e-01  5.0138164495054338e-01  1.6070522563083064e-01  4.5581505247484067e-01  4.1746420899935893e-01  2.8268529862171241e-02  4.3373253454463745e-02  2.1407338628491479e-02  3.8784899926094574e-01  9.3899092298675060e-02  4.8118314427983970e-02  5.4994335555063523e-01  2.3555885131672494e-01  2.3873519305897742e-01  0.0000000000000000e+00  2.1416768154379268e-01  2.6647183862571883e-01  8.0071778435831048e-02  6.2371691018123468e-02  6.1555254606919470e-02  4.2543298020281767e-01  3.3084449064138399e-01  5.2622695276111731e-01  1.9664406968916337e-01  4.5446331620092950e-01  5.0335216438308550e-01  3.3047724564792463e-01  2.9493707012920312e-01  1.4022789898732313e-01  2.9844612614691063e-01  0.0000000000000000e+00  3.7386760059150065e-01  5.1883846351476071e-01  4.9584151362493289e-01  4.7554051485460763e-01  2.3706032614840028e-02  2.6921723005994286e-02  1.4997950295023266e-01  1.8122086386238825e-01  1.2942594372434019e-01  0.0000000000000000e+00  4.0332608090449917e-01  2.7701580531340542e-01  5.4837244524666084e-01  5.6100778530528084e-01  4.9502008666380232e-01  4.6708900969996955e-02  3.1634582627277036e-01  3.5886321928237175e-01  1.8039586505101080e-01  1.1710414003594086e-01  7.6465521913937184e-02  2.5106769156587527e-01  2.4832960561007252e-02  3.8879250989092451e-01  4.3222668367623246e-01  5.1790456943246066e-01  5.5799695548382211e-02  3.4453690370497680e-01  3.9535579335162829e-01  4.3224052437745136e-01  8.4953021186174593e-03  4.3147087291906627e-01  3.2380988573865105e