<?xml version="1.0"?>
<VTKFile type="UnstructuredGrid"  version="0.1"  >
<UnstructuredGrid>
<Piece  NumberOfPoints="3873" NumberOfCells="7424">
<Points>
<DataArray  type="Float64"  NumberOfComponents="3"  format="ascii">0.0001 3.141592653589793 0  0.0001 0 0  1 0 0  1 3.141592653589793 0  1 1.570796326794897 0  0.0001 1.570796326794897 0  1 0.7853981633974483 0  0.0001 0.7853981633974483 0  0.0001 2.356194490192345 0  1 2.356194490192345 0  0.50005 0 0  0.50005 1.963495408493621 0  0.50005 3.141592653589793 0  0.50005 1.178097245096172 0  0.50005 2.478091176732636 0  0.50005 0.5518221953935506 0  0.0001 2.748893571891069 0  1 2.748893571891069 0  0.4043029915661778 1.570796326794897 0  0.0001 0.3926990816987241 0  0.0001 1.178097245096172 0  0.0001 1.963495408493621 0  1 0.3926990816987241 0  1 1.178097245096172 0  1 1.963495408493621 0  0.6436705126507334 2.809841915161214 0  0.313867646641764 2.864027914704857 0  0.250075 0.9817477042468103 0  0.31256875 0.2759110976967753 0  0.7500249999999999 1.374446785945534 0  0.7021514957830888 1.706197524374113 0  0.68753125 0.2759110976967753 0  0.6582907584338221 0.8649597202448616 0  0.250075 2.159844949342983 0  0.7021514957830889 2.220793292613128 0  0.7830382159985875 2.552544031041707 0  0.2170617840014127 2.552544031041707 0  0.250075 1.816421800599144 0  0.2022014957830889 1.374446785945534 0  0.7871960524183051 0.5890486225480862 0  0.2129039475816948 0.5890486225480862 0  0.7500249999999999 1.97516781880888 0  0.7500249999999999 0 0  0.7500249999999999 1.117148901826027 0  0.7500249999999999 3.141592653589793 0  0.250075 3.141592653589793 0  0.250075 0 0  0.4162390824856539 0.7907265769041518 0  1 2.945243112740431 0  0.4686831037823826 2.245431259090571 0  0.3984510347182807 2.66695524584766 0  0.0001 2.945243112740431 0  1 0.1963495408493621 0  0.0001 0.1963495408493621 0  1 0.9817477042468103 0  0.4088871947985142 1.363892085770187 0  0.5000499999999999 1.755473457328999 0  0.2022014957830889 1.576632531952526 0  0.6057514651230198 1.522956878131032 0  0.3238495001364742 2.38340191027742 0  0.448433482100856 0.9865129807082104 0  0.1996666676871971 1.174870124469714 0  0.2186322789003933 0.7866151651361794 0  1 1.767145867644259 0  1 2.159844949342983 0  1 0.5890486225480862 0  0.0001 1.374446785945534 0  0.0001 2.552544031041707 0  1 2.552544031041707 0  0.0001 1.767145867644259 0  0.0001 2.159844949342983 0  1 1.374446785945534 0  0.0001 0.5890486225480862 0  0.0001 0.9817477042468103 0  0.7966929831277501 2.943708349109411 0  0.50005 0.2016521877204335 0  0.6123036164331159 2.626457930474035 0  0.4961884210211235 2.942957665418523 0  0.8144051122162048 2.735928015728886 0  0.8204666319118807 0.9487468054196759 0  0.81099483525996 0.7682351207937744 0  0.6290027804260637 0.6832086773957431 0  0.4609517922159575 0.376737191556992 0  0.1828489469069698 1.988133374971064 0  0.6707845995654717 2.404177277300307 0  0.5805791125952847 1.332872531841999 0  0.7802433305065121 1.548137039274974 0  0.1836815383840006 2.733703310360552 0  0.6582432719922414 0.4576621405458937 0  0.8226078739659392 0.3909131052819032 0  0.1414659540326779 0.294524311274043 0  0.6301667383861228 1.85948443291131 0  0.8290802781932748 2.336878380360784 0  0.6007984108517967 1.048208290634836 0  0.30540061264058 0.4460589590468574 0  0.5728801724750299 2.114310955316 0  0.8337119322820196 1.82152693947121 0  0.1668953998307583 2.311245867967377 0  0.1540887860261057 2.893450796318837 0  0.8248876613113414 0.1619893151238729 0  0.6462674731248702 3.012677912802138 0  0.3750625 0 0  0.6250374999999999 0 0  0.3451613310667793 2.023602635333791 0  0.8750125 1.276272015520853 0  0.1250875 0 0  0.3750625 3.141592653589793 0  0.18758125 0.1442422890270057 0  0.3462307409979689 1.10998597454748 0  0.879324185655443 2.061670178918302 0  0.8788305767441811 1.668971097219578 0  0.1444729022658622 0.4497208988856661 0  0.361211039858802 2.525162589124743 0  0.1250875 0.9017880561397784 0  0.4477524140051871 2.804803233744539 0  0.1085808920007063 2.454369260617026 0  0.1250875 3.141592653589793 0  0.3063364088201761 1.680515745009675 0  0.3929920784377063 1.85948443291131 0  0.1098957775684681 0.6909016029551854 0  0.3653287165263744 0.6387133281215776 0  0.1114136863832214 1.86115058892234 0  0.2557143057534883 2.996775639219902 0  0.8897534822902359 1.07666281157757 0  0.8750125 3.141592653589793 0  0.6838542721013225 0.131710978509034 0  0.3294735604780377 0.134707077140648 0  0.3209708651324263 1.250903285802515 0  0.1011507478915444 1.276272015520854 0  0.1011507478915444 1.472621556370216 0  0.3004171924085279 1.47553965894903 0  0.8990763363416723 1.472621556370215 0  0.865911023721843 2.201411917429707 0  0.8990763650761613 2.847790871134235 0  0.1404942740800562 1.713625834471282 0  0.09832187733145763 1.079922474671491 0  1 2.454369260617026 0  0.6388377108131158 1.204223589782245 0  1 0.4908738521234052 0  0.8932196219971033 0.2771430607716678 0  1 2.650718801466388 0  0.8935980262091526 0.6660904436458346 0  0.1085808920007063 2.626210386255747 0  0.5473777159624333 2.353266137779173 0  0.5238156147425114 1.625993144692569 0  0.4403119165206222 2.115924419553056 0  0.4961635522052268 0.6846119740641458 0  0.3512283401702931 0.9019568719338867 0  0.5232084261945064 0.8736770960774308 0  0.4865608326523443 1.469115939909359 0  0.0001 2.061670178918302 0  0.1255491744100717 2.109582037463674 0  0.7573684529074916 2.104077207672804 0  0.6237572635273158 1.996749011053814 0  0.8750125 0 0  0.6250374999999999 3.141592653589793 0  0.1089083249092491 3.013936057506498 0  0.5662391073708588 0.3083408776361583 0  0.7568728815825815 1.240418992382508 0  0.3760680147799352 2.970387884139288 0  0.8674583689930622 1.939520581926012 0  0.8984750585563868 0.8541492086001128 0  0.5159738951472362 2.702663476643143 0  0.7124534596733288 1.002499228120676 0  0.8712328805957233 2.458625004572679 0  0.8784081411761074 2.630606057494734 0  0.5682351311878405 0.1043537099711881 0  0.2789599587339176 2.274264211115638 0  0.5852010535502201 2.23106313513937 0  0.8764385285184018 0.5027662550473762 0  0.897790426545084 3.018136533065701 0  1 0.09817477042468103 0  0.0001 0.09817477042468103 0  0.6686420929016731 2.522446954891724 0  0.7266997395300303 2.656555006624018 0  0.2966781539516079 1.920443639398794 0  0.6161269010940069 0.5668707334685418 0  0.2146526260367216 2.414145768133129 0  0.3580218735372008 2.193449546206159 0  0.4375943946845662 2.38302625408493 0  0.09718336524035154 2.220468181643818 0  0.485417983859572 2.591979411670259 0  0.2777166123916075 2.657375181736024 0  0.2231772956223172 0.3705685702321999 0  0.4134189290644774 0.4792597581784567 0  0.5635078774511729 0.7714455678042642 0  1 1.86532063806894 0  0.4411956189342488 0.1008260938602168 0  0.3489529107964599 2.762398587934793 0  0.546314612673972 0.4495828416093093 0  0.1065019737908474 0.5548392573440907 0  0.1133092801595398 0.7966461159998642 0  0.4558636266752543 3.043096632477177 0  0.09676593826196477 2.800217179025625 0  0.7946120952879669 2.838885867462732 0  0.3184704182586279 0.7389382744261054 0  0.41745563104718 1.681136140614403 0  0.6070078636114382 1.755063077244438 0  0.4970464131646254 1.85948443291131 0  0.7663604658538505 2.448513674832494 0  0.7264673036432115 1.811162185064712 0  0.6838637344022659 1.598840833492821 0  0.702131061227266 1.472253083913186 0  0.3047798890685416 1.354199596256586 0  0.4833081090229716 1.285145170208883 0  0.7904728559163801 0.2602618642236435 0  1 2.258019719767664 0  0.748327012060599 3.036747092283478 0  0.7059193518673514 2.893078450374415 0  0.6003612624103871 2.915105728919009 0  0.8420796692877984 1.173491045015097 0  0.3033365114592679 1.576632531952526 0  0.1011507478915444 1.573714429373712 0  0.3098227683742511 0.5503313431497306 0  0.6050333868759279 0.210397075110954 0  0.396636965874758 0.2143617400479069 0  0.7720730134062289 0.4841135013771994 0  0.7382169417515795 0.6867274934398225 0  0.0001 1.668971097219578 0  0.3794283542702952 2.296741081808273 0  0.2217662352816454 1.27439386551203 0  0.2008558061950209 1.072040571755609 0  0.2007839701500362 1.474080607659623 0  0.6775948840653665 1.30355727811195 0  0.340700909146096 1.774340086983184 0  0.447258223415787 1.089574996080853 0  0.3488034284277409 1.002895782063745 0  0.8542342206342519 1.378467876193278 0  0.208916385809148 0.6880305558439128 0  0.2528138930032925 0.8812068380068848 0  0.8772890837053948 1.569593603899276 0  0.08651740710324034 2.012582793705961 0  0.1015177450167185 1.178071579430421 0  0.0001 3.043417883165112 0  0.0001 2.454369260617026 0  1 3.043417883165112 0  0.0001 2.258019719767664 0  1 0.6872233929727672 0  1 0.2945243112740431 0  1 1.472621556370215 0  0.1039857991576499 1.374446785945534 0  0.0001 1.472621556370215 0  0.0001 1.079922474671491 0  0.0001 1.276272015520854 0  0.0001 1.86532063806894 0  0.0001 0.4908738521234052 0  0.0001 0.6872233929727672 0  0.0001 0.8835729338221293 0  1 0.8835729338221293 0  1 1.079922474671491 0  1 1.276272015520854 0  0.0001 0.2945243112740431 0  1 1.668971097219578 0  0.0001 2.650718801466388 0  1 2.84706834231575 0  1 2.061670178918302 0  0.0001 2.84706834231575 0  0.5451068732179182 2.830830737605905 0  0.7130243457102929 0.7824672649853621 0  0.774402309741327 0.8606595453090997 0  0.5625437499999999 3.065095569948818 0  0.1021653426598387 0.2002481465025056 0  0.4016220123158371 1.192637648098719 0  0.6507405351676969 2.306374275978375 0  0.09989367896045695 0.0965743806061498 0  0.5956958435463691 0.9459643122865043 0  0.5758950595431839 1.430201754441473 0  0.18758125 3.068818635454755 0  0.9189961566149346 2.307107104980004 0  0.9086199155480861 0.7597934945213625 0  0.3317103763829294 3.055732701676626 0  0.9187046178076601 0.1472621556370216 0  0.1569986662380156 0.9895725013796508 0  0.3936880763177102 1.47809618029627 0  0.5944280602888595 2.461948290387623 0  0.6503432002534183 2.714326019711334 0  0.9086901920561082 2.721116093962
[...]
<PointData  Scalars="f_17"> 
<DataArray  type="Float64"  Name="f_17"  format="ascii">2.5142939459214958e-01  2.5142880734901274e-01  0.0000000000000000e+00  0.0000000000000000e+00  0.0000000000000000e+00  2.5142906119187020e-01  0.0000000000000000e+00  2.5142886567083345e-01  2.5142929991147073e-01  0.0000000000000000e+00  1.8750606530474839e-01  1.8749461756702712e-01  1.8751138412543544e-01  1.8748282451823858e-01  1.8752441017269120e-01  1.8746760312700919e-01  2.5142937676092925e-01  0.0000000000000000e+00  2.0908659540917471e-01  2.5142883460540727e-01  2.5142892249894538e-01  2.5142918863876756e-01  0.0000000000000000e+00  0.0000000000000000e+00  0.0000000000000000e+00  1.4642797372657296e-01  2.2540356167561959e-01  2.3431142783137274e-01  2.2560492859686043e-01  1.0935549396310687e-01  1.2674999167345749e-01  1.3179449091905737e-01  1.4168246169311691e-01  2.3443080178389211e-01  1.2671691295279311e-01  9.6739355085024487e-02  2.3821758527656545e-01  2.3437475701836663e-01  2.3975144381223917e-01  9.5088917618867189e-02  2.3861946954409174e-01  1.0934761082928032e-01  1.0938638461819873e-01  1.0935779534959576e-01  1.0938318085559498e-01  2.3439456653902344e-01  2.3437905312034446e-01  2.0668268218458696e-01  0.0000000000000000e+00  1.9508984061587767e-01  2.1035910586499201e-01  2.5142940227372573e-01  0.0000000000000000e+00  2.5142881738933159e-01  0.0000000000000000e+00  2.0814721068103054e-01  1.8751195012825378e-01  2.3973353364330888e-01  1.5828449077561499e-01  2.2382097345338017e-01  1.9973746108212290e-01  2.3991221210657637e-01  2.3802119364921953e-01  0.0000000000000000e+00  0.0000000000000000e+00  0.0000000000000000e+00  2.5142898411957643e-01  2.5142934302423287e-01  0.0000000000000000e+00  2.5142912619020452e-01  2.5142927103788260e-01  0.0000000000000000e+00  2.5142884997970311e-01  2.5142888847507033e-01  9.1309146093990157e-02  1.8752835257614850e-01  1.5629467986399911e-01  1.8846912079111452e-01  8.4193381830987582e-02  8.1678851426511170e-02  8.5540796901577454e-02  1.5109529632552146e-01  1.9689717413089375e-01  2.4163479386729886e-01  1.3753519579773696e-01  1.6569114958102460e-01  9.7817553633093232e-02  2.4155978524856397e-01  1.4171717447306811e-01  8.0815538490121103e-02  2.4502919447208263e-01  1.5075357307800333e-01  7.8166417639526142e-02  1.5973518357590413e-01  2.2674937450149527e-01  1.6796921523126540e-01  7.6224602944852171e-02  2.4297557723334620e-01  2.4396762005558870e-01  7.9891708523378790e-02  1.4559225006117060e-01  2.1485754627864548e-01  1.5231566926701723e-01  2.2020167007690830e-01  5.8625204880613957e-02  2.4593148856989894e-01  2.1483210708547698e-01  2.4118816951640701e-01  2.2002215204924780e-01  5.6709066880998527e-02  5.6927464159282133e-02  2.4475340813518814e-01  2.1734830965344940e-01  2.4614866995336906e-01  1.9990287668280110e-01  2.4683042836303501e-01  2.4600929358279430e-01  2.2652213295196724e-01  2.1139934141492395e-01  2.4692240991080594e-01  2.1660949564799420e-01  2.4674853607995254e-01  2.3367447955038431e-01  5.2094938335878922e-02  5.8582408931778095e-02  1.3312741663830566e-01  2.2287743976255997e-01  2.2424205663072094e-01  2.4745645624139226e-01  2.4738322468372123e-01  2.2737031100378721e-01  4.7891092101453397e-02  6.2537179822072853e-02  4.7915390784902243e-02  2.4494443464134949e-01  2.4756597681694292e-01  0.0000000000000000e+00  1.4797324133045076e-01  0.0000000000000000e+00  5.0539866093621544e-02  0.0000000000000000e+00  5.0359368845938654e-02  2.4688446414751258e-01  1.7509522813230344e-01  1.8141700402870728e-01  2.0157854563754962e-01  1.8849046853963619e-01  2.1912423813439305e-01  1.8158006128763063e-01  1.9081307188540042e-01  2.5142923530498879e-01  2.4593407798528044e-01  1.0659677990884125e-01  1.5275076136708068e-01  5.8578879823256096e-02  1.5235444262893000e-01  2.4692974399529921e-01  1.6985364760052798e-01  1.0682200167892132e-01  2.1462172034299476e-01  6.1906214160836769e-02  4.8193535006137364e-02  1.8347768543664603e-01  1.2312407377854220e-01  6.0239589225929945e-02  5.7108466845209364e-02  1.6930433871949654e-01  2.3061502026848060e-01  1.6439928735315767e-01  5.7965688752495206e-02  4.8500941922522668e-02  0.0000000000000000e+00  2.5142880994512296e-01  1.3824968937367932e-01  1.1798316665455537e-01  2.2803035236162880e-01  1.5510090178971464e-01  2.3846585139612253e-01  2.1794120232455175e-01  2.0213623402524261e-01  2.4753151474552357e-01  1.9110748337189659e-01  2.3078016201811080e-01  2.3753049878349525e-01  2.0729004561528097e-01  1.7062366388541961e-01  0.0000000000000000e+00  2.0133870682745328e-01  2.1958698842786664e-01  1.7538684397700555e-01  2.4710346726109625e-01  2.4669486923561965e-01  1.9806589802309313e-01  2.4759500486983349e-01  9.2152591611895165e-02  2.2463017567672419e-01  2.0645699383868432e-01  1.5786169235621106e-01  1.8825368858908628e-01  1.0316716638352451e-01  1.1806885568552113e-01  1.3309758752365261e-01  1.2678500666539030e-01  2.2678074267324683e-01  1.9162124137167727e-01  9.3802602155178771e-02  0.0000000000000000e+00  1.0999663747918584e-01  1.2541760227812529e-01  1.5988982561064921e-01  7.2727025800935735e-02  2.2692640256799010e-01  2.4736054565702184e-01  2.2602995361095896e-01  1.5850309509281418e-01  2.1066781154586686e-01  1.0097666207611659e-01  1.1378344378868231e-01  2.5142909345578496e-01  2.1402695237512837e-01  2.3764248447168801e-01  2.3982287478590578e-01  2.3989314957997393e-01  1.3520087955879578e-01  2.2099983868716180e-01  2.0002078279634969e-01  2.1954280547178953e-01  6.7570964080024179e-02  2.3900476449869540e-01  2.3396942570673648e-01  5.7568947866597137e-02  2.4802910469779549e-01  2.4742548336536713e-01  2.5142939621017629e-01  2.5142931884542108e-01  0.0000000000000000e+00  2.5142929024407151e-01  0.0000000000000000e+00  0.0000000000000000e+00  0.0000000000000000e+00  2.4727599662183108e-01  2.5142902296033903e-01  2.5142890316722638e-01  2.5142894992320308e-01  2.5142915206333483e-01  2.5142884190136772e-01  2.5142885786367247e-01  2.5142888029063820e-01  0.0000000000000000e+00  0.0000000000000000e+00  0.0000000000000000e+00  2.5142882627756019e-01  0.0000000000000000e+00  2.5142936156793305e-01  0.0000000000000000e+00  0.0000000000000000e+00  2.5142939763251598e-01  1.7570931238013407e-01  1.2288829466083573e-01  1.0008025297884489e-01  1.7090887801801774e-01  2.4724747482361237e-01  2.0969680694024101e-01  1.4416812580648569e-01  2.4735424910269799e-01  1.6130175645528400e-01  1.6705326330520451e-01  2.4111845128045420e-01  3.8861287472217704e-02  4.3578528386858016e-02  2.2253199046561281e-01  3.8983539455250071e-02  2.4370266500228011e-01  2.1121628177858054e-01  1.6166863335645271e-01  1.4424551295441618e-01  4.3545269840159738e-02  1.1712898255229480e-01  8.7232628234573686e-02  1.3896189997804784e-01  2.3999109611410185e-01  2.3421320757472594e-01  2.3740072621440259e-01  1.4578154256253550e-01  2.2919495022189099e-01  4.1260814613738393e-02  8.8569473575047061e-02  2.3768791058213065e-01  1.1199837355231768e-01  9.7099895860456684e-02  8.4442725783588926e-02  2.0567751039391402e-01  1.8750205347396373e-01  2.1728022167798020e-01  1.9270719256381538e-01  1.1391738846801644e-01  8.4956062133531046e-02  4.2532832788722101e-02  1.2552912338188918e-01  1.7164921663749602e-01  9.3716553093320498e-02  4.4991742553289651e-02  2.4828497349921505e-01  2.0181477346714760e-01  1.5363369137475172e-01  2.4776373647165156e-01  2.4117118380957595e-01  4.3805887134772306e-02  2.4781276258385884e-01  2.4082319959498283e-01  4.2212253418667911e-02  2.4797901845143144e-01  1.2866823854974219e-01  2.1400958317885513e-01  1.4045954561378063e-01  4.1069253760852437e-02  2.2351876093034012e-01  2.3624949888142510e-01  1.7009889193537600e-01  2.3676864629135569e-01  1.7430059517296170e-01  2.3217164240142113e-01  1.8247235886646385e-01  1.7505138570656584e-01  1.1712318728677101e-01  1.7062558236652203e-01  1.2579815016329518e-01  2.0718097407319805e-01  2.2140559341532126e-01  2.0370341974664513e-01  2.0985470821211707e-01  9.7462318250061714e-02  3.6940676199056409e-02  7.8494826015045344e-02  1.3512047994743198e-01  1.7938319858351168e-01  1.7920774288553021e-01  6.0554185797336374e-02  2.3035472812975041e-01  2.3563853593730641e-01  2.4822047795621174e-01  1.3183479883471574e-01  2.0640557230981793e-01  1.9115634949363153e-01  1.5546297925870251e-01  2.0593883627350085e-01  2.0694118859470756e-01  2.2954188521259306e-01  2.2956567464881150e-01  7.6244739609887965e-02  8.8174541128803283e-02  3.5588600604597030e-02  3.0264998524156629e-02  2.4909770361227976e-01  3.6237421749116608e-02  3.0265919487138502e-02  3.9439860258006491e-02  8.5066226562549418e-02  2.3376963888867092e-01  2.4243589230104504e-01  2.4850061119767594e-01  1.6557819860966905e-01  8.2907042116457524e-02  2.2806643920328701e-01  1.3252412725675203e-01  2.9957355485785087e-02  3.5766675291831092e-02  8.9064850240527210e-02  2.9265265454091562e-02  1.1128753276330515e-01  1.6813328703990657e-01  2.4035530296049862e-01  2.3381425565682196e-01  8.7997830581530781e-02  2.4856417962342575e-01  2.1005062757474660e-01  2.1907958694248125e-01  1.7057110668344841e-01  3.0317138758611296e-02  1.7400282269184089e-01  2.7979198220395411e-02  2.4810511557381293e-01  2.4286290334743707e-01  2.4892140925493922e-01  1.4850882634949139e-01  1.2390536657073686e-01  1.3766508172252434e-01  2.4877562132771947e-01  2.2622224332243712e-01  2.2457405733906188e-01  2.2560972897625631e-01  1.8932698131250064e-01  2.3302099397150472e-01  2.4157177216735609e-01  2.4178504405939522e-01  1.1458615306533404e-01  2.4829982749030136e-01  2.4474347449159581e-01  2.1718841497849789e-01  1.0366454271991682e-01  2.1632120294807652e-01  2.3344753139313756e-01  2.1416079700104959e-01  2.0630346616614667e-01  2.4179377392048007e-01  1.2256615078460255e-01  3.3435682379626637e-02  3.1563828274314414e-02  2.0023664139791156e-01  2.4943279232439988e-01  2.3309104167056097e-01  2.4350569229970587e-01  1.9957475162362134e-01  2.4011702075302449e-01  1.4870970181014614e-01  1.9547599451732531e-01  2.4751841426019661e-01  1.5078802792170831e-01  2.4888626184837961e-01  1.5615254522561373e-01  1.7837126350646695e-01  2.1536975336295366e-01  2.2408256475094498e-01  2.4931079613556523e-01  2.5054492542577859e-02  2.4415500206355484e-01  2.4871560377432089e-01  2.4745532813017529e-02  1.2383373712752693e-01  2.4945391681679843e-01  1.9979573456173233e-01  2.3435256602692375e-01  2.3412799535020215e-01  2.4429555045062196e-01  2.4951472529800056e-01  2.4956314730695336e-01  2.4403788215658909e-01  2.4956358779591406e-01  2.4957270744718252e-01  2.4589621752414099e-02  3.0169577623433814e-02  1.6321833469739072e-01  7.2415079121617806e-02  6.0806772158237432e-02  2.4955606021689550e-01  2.4416932753147799e-01  2.4439652313361182e-01  2.4961719482635719e-01  2.4905214363402431e-01  2.2884138551323330e-01  7.9066983164741103e-02  2.4255141121084065e-01  1.9021240795649089e-01  1.5085329392155430e-01  1.7066785539922671e-01  1.9343378093121491e-01  2.4193603599551541e-01  2.4885188144434656e-01  2.4768410679265496e-01  7.9210119946482818e-02  1.8837383558533985e-01  1.4234115577502532e-01  1.8592351100073129e-01  2.4875987396428514e-01  1.0546642776837806e-01  1.9136717585015434e-01  1.6392547195291401e-01  1.7699346032169677e-01  7.6279398519089228e-02  2.4895300711877374e-01  2.4181219436306342e-01  1.3182206349982001e-01  1.7388440483857528e-01  6.9851964129117386e-02  3.2909436812713494e-02  2.8990343385894547e-02  2.3404033622754358e-01  2.1918526286289541e-01  2.3904922947503732e-01  1.7917154469072641e-01  1.5916483504917481e-01  1.8671667203475578e-01  6.1446451347064064e-02  1.4824609102188926e-01  1.7088538761337224e-01  2.4366810616699711e-01  1.5495277115385314e-01  2.1303210251783591e-01  1.9864830596964481e-01  1.5851216715711855e-01  1.3651465567367557e-01  2.4381891882913873e-01  6.0854282151110328e-02  1.9855379202072748e-01  2.2947749978910406e-01  1.8385805158337568e-01  0.0000000000000000e+00  3.1604398378837113e-02  7.4402090099068938e-02  2.3391567855966988e-01  2.3564964380909278e-01  2.1230664259919643e-01  2.4422301472221625e-01  2.4957169739629187e-01  0.0000000000000000e+00  1.2885461788667962e-01  1.7468567579110844e-01  1.9998983663853681e-01  3.0881461259613541e-02  0.0000000000000000e+00  1.3818603692672105e-01  2.4482588988192072e-01  4.4673831813096990e-02  7.6932299962760409e-02  2.4325545241192320e-01  2.1890237175894386e-01  1.3280549529067218e-01  1.8499810988015405e-01  7.2089308278265568e-02  3.0790809361399895e-02  2.1069598066774090e-01  2.2850830797235511e-01  2.5142939791883101e-01  2.5142931167700816e-01  2.1106771037714481e-01  1.4537319074713342e-01  1.3700168893843417e-01  1.4734802963960683e-01  1.0593890956897380e-01  2.4488255306176024e-01  1.1249476572360699e-01  1.6953575361836273e-01  2.1069664808543476e-01  1.8656045226080778e-01  1.8815528715889132e-01  2.0209366964669545e-01  1.7240289764338820e-01  1.5408612376944553e-01  2.1584452466496021e-01  1.1925907433319967e-01  2.2435192120096653e-01  1.2977789599799272e-01  3.0282351429640308e-02  3.0159501544840372e-02  2.1622924440467714e-01  1.5102171906462189e-01  1.7455815960462526e-01  2.4021189162787511e-02  2.4504090847761867e-01  2.4375934749510686e-01  8.4967128711127132e-02  8.4943773273930614e-02  3.0265879304034633e-02  2.0215117287511955e-01  2.4120451374093005e-01  2.4115932023851869e-01  2.2563331081194971e-01  1.7092798612295662e-01  1.7088626737174717e-01  1.7097813281249633e-01  2.0049005752084154e-01  3.7349653758853310e-02  5.6934010596307989e-02  1.3907292584347908e-01  7.5680100614880952e-02  2.4914313489853915e-01  2.3014012848449872e-01  2.3385530431804777e-01  7.8952398015590702e-02  6.7281164036384539e-02  1.2513461863791511e-01  2.1994718499357682e-01  1.9662248347029684e-01  9.9419134041273380e-02  8.0835811581394607e-02  2.0008956520974244e-01  1.0086662698335226e-01  7.9973712727210905e-02  2.0271533884065740e-01  7.4020127064055946e-02  1.9581622176850871e-01  1.4400188246563231e-01  6.6812830259935369e-02  6.8255722302134461e-02  8.6610633105361365e-02  2.4941337942261768e-01  1.8880906567287026e-01  2.7451330642061240e-02  6.9921265921511100e-02  1.2710351646257104e-01  1.2640679976714386e-01  2.0908304593795676e-01  2.1752004395620506e-01  2.0086702389693051e-01  0.0000000000000000e+00  6.6938076748124811e-02  1.2170036887424204e-01  2.3515902346687231e-01  1.6236046556237652e-01  2.3511155723920435e-01  2.4938568007230122e-01  2.1729576988413909e-01  1.1115039177293938e-01  1.1172976515083109e-01  2.5142882916211307e-01  2.2900989094867868e-01  2.3662749214211348e-01  2.2508711762889108e-01  2.4919750248755196e-01  1.7548860739314673e-01  1.9018965512024422e-01  2.0471255722795625e-01  2.1182586635961848e-01  2.1412530864175616e-01  1.5248543370149603e-01  1.0775228209583931e-01  1.3670902041871841e-01  2.3826039753774919e-01  5.8790135821133495e-02  2.3466280324721084e-01  2.3744376843220852e-01  2.2422952374325383e-01  1.8563813659743425e-01  2.0262738708643574e-01  2.2549721973914921e-01  2.2085726731943750e-01  1.6413445247430297e-01  1.0915756214608202e-01  2.4959993284096507e-01  1.5179761515069720e-01  1.5308012820431757e-01  1.2346490262932773e-01  0.0000000000000000e+00  2.8701211952631520e-02  1.0663321577278925e-01  2.5142929457427343e-01  0.0000000000000000e+00  2.5142939477420306e-01  2.4959495846910210e-01  1.2153263812865736e-01  3.0597377820888186e-02  7.2176428772285334e-02  2.2191171390003342e-01  6.6376324198219011e-02  2.3465548027428385e-01  2.4545439446937981e-01  2.5142928445164647e-01  2.2325341251666839e-01  2.1961937007469390e-01  2.3215566692948958e-01  1.5953079520617608e-01  2.4932443997761961e-01  2.1379406282647487e-01  1.0323595915597730e-01  1.0025964991473935e-01  2.3176831702443490e-01  2.7741649013888810e-02  2.2764966301992406e-01  2.2168124619812773e-01  1.9916896438343459e-01  2.4485635232351191e-01  2.4950945757695941e-01  2.0033637639431631e-01  1.4335009414117333e-01  1.8534889539947239e-01  2.7243930244773371e-02  2.4605097450137062e-01  2.4950245354152523e-01  6.7192096798446996e-02  1.5648088955442635e-01  1.4207939321863930e-01  2.4924403449837504e-01  1.6307317999275553e-01  2.4696084230173657e-01  2.0230233589578522e-01  2.1469633437473240e-01  2.1835280571985632e-01  2.3587264880068978e-01  1.9441685407332240e-01  2.7079098940290192e-02  2.3431131541405228e-01  2.9113591874786054e-02  1.8292545108420477e-01  2.4935820266477010e-01  2.5142889367672866e-01  2.4952644046591074e-01  1.8995269282645519e-01  1.3673891041839109e-01  5.6485710788099296e-02  1.1119788323045646e-01  1.1887364181178263e-01  9.2389977343710100e-02  9.8653529590442157e-02  2.4575842936445688e-01  2.4935879068398872e-01  2.4617540312407352e-01  2.4585806268870974e-01  9.9154029686126965e-02  1.1163230361298071e-01  1.3312620839692876e-01  2.3088613251699178e-01  1.1721079164353912e-01  1.8660768385758442e-01  1.0913447252770594e-01  5.4742973199126223e-02  2.4510583707352618e-01  2.5142937110302588e-01  2.2668968228582859e-01  2.0934016062009503e-01  1.8630397021947973e-01  2.0207297693313500e-01  1.8143750272264197e-01  2.4319323549983965e-01  1.5770267950929281e-01  2.6223192453871072e-02  2.4945291482860163e-01  1.3698849797748769e-01  2.4626512558462327e-01  1.0666230762118058e-01  2.5142938440910562e-01  2.1152060915305443e-01  2.0476545262435175e-01  2.3343417272790293e-01  2.3539801476326763e-01  5.2764073420653451e-02  1.1195776487718263e-01  1.5515189891193873e-01  1.7338574953369290e-01  1.4551058647170551e-01  5.3383986429015484e-02  1.4513267169883456e-01  0.0000000000000000e+00  2.8195206150559666e-02  2.4774724673862544e-01  2.4305121135125304e-01  0.0000000000000000e+00  1.0026294645610662e-01  1.7632767524375983e-01  9.0903231096286674e-02  1.9733508712616882e-01  1.0981266780434261e-01  1.7317785954100542e-01  2.4582804782253140e-01  2.4300925782178087e-01  2.4701329197285238e-01  2.5142925193697790e-01  2.1785057727052701e-01  1.7684835725622000e-01  1.1853288880396518e-01  1.4715290813972923e-01  2.5639262662414779e-02  2.3150123560398675e-01  2.2640166246235813e-01  2.5142940376200434e-01  2.1154808029821856e-01  0.0000000000000000e+00  5.8297455453221222e-02  1.2813011112831818e-01  1.0487895487557615e-01  2.2902873807097940e-01  9.6206302418138975e-02  7.0522652293468310e-02  9.3920298796710627e-02  1.2745981510181367e-01  2.4487301466397951e-01  2.1816251625134470e-01  1.6184640605940065e-01  2.4093056001711918e-01  1.6857825592004452e-01  2.3201150920022026e-01  2.2437513154755204e-01  6.6712146175606085e-02  8.9530610366635954e-02  5.3932995954291178e-02  2.1848144831632993e-01  1.3677452370501036e-01  9.5548452204080106e-02  2.4970688841787675e-01  1.8796122774886417e-01  1.8868410035443706e-01  0.0000000000000000e+00  1.8337544470017361e-01  1.9413090004884193e-01  1.2670280748915189e-01  1.1119683476102196e-01  1.1035024209801066e-01  2.2594185971489419e-01  2.0709244589899933e-01  2.4578795089377473e-01  1.7896396505422776e-01  2.3175647097691612e-01  2.4139449670008234e-01  2.0702461402226432e-01  1.9994481252981103e-01  1.6067689836060189e-01  2.0063444796146193e-01  0.0000000000000000e+00  2.1559870105391901e-01  2.4434364445693102e-01  2.3988479793714784e-01  2.3591480766747691e-01  5.8492454453838917e-02  6.4293983273727512e-02  1.6459783745470208e-01  1.7496464371300707e-01  1.5623949509508997e-01  0.0000000000000000e+00  2.2154788872091183e-01  1.9616444616248011e-01  2.4950841161718568e-01  2.5142882011817291e-01  2.3973933084642601e-01  9.3817818339352488e-02  2.0416096408096643e-01  2.1266744887859326e-01  1.7470849825057383e-01  1.5033190361916823e-01  1.2389011290692026e-01  1.9112848961462592e-01  6.0448429328542344e-02  2.1864735425859833e-01  2.2729317009660077e-01  2.4418635317429699e-01  1.0446656600798218e-01  2.0982841800001836e-01  2.1995969190735393e-01  2.2730042031752479e-01  2.4584244405512410e-02  2.2714765049366697e-01  2.0573732586920843e