<?xml version="1.0"?>
<VTKFile type="UnstructuredGrid"  version="0.1"  >
<UnstructuredGrid>
<Piece  NumberOfPoints="13195" NumberOfCells="75629">
<Points>
<DataArray  type="Float64"  NumberOfComponents="3"  format="ascii">-7.50952129017396 1.773711313382202 0.1336821805093507  -8.218513881629612 2.025776043450942 0.3052698390173957  -7.606293567505731 2.266123585730307 0.7086255901822075  -7.457057452122714 2.768160054842806 0.07496014408120052  2.993684626740145 1.207625779357029 -2.483215190043984  2.585555315342251 1.122443884768182 -3.265585896319555  3.016471338560374 0.6626335284294488 -2.826492620232565  2.475522970071442 0.852282546281333 -2.558476423584986  0.91511371643978 -4.015332075315582 5.790724024971458  1.301951641493451 -3.383884843238737 5.801107700797215  0.5435726801023426 -3.740250786275488 5.086236599214865  0.3851595665321226 -3.69400456618299 5.691763286819492  6.559437076494963 0.7072733071896173 5.350267523102247  7.241359091511961 0.9307848883909492 5.722087882602564  6.71153011985911 1.38436518333198 5.328640769874127  6.288081169612608 1.202393759626146 5.819683401842314  -3.540678656670518 -5.066378211989307 1.323554558223101  -4.430895050908042 -5.242501045666315 1.73127884525792  -4.080517552666229 -5.462987900713296 1.163521783954529  -3.522858767310506 -5.765511409136622 1.763579586791029  -4.265780014768051 -7.980649202432995 -1.604816860486221  -5.207058452801729 -7.764288310567459 -1.108139367012752  -4.580024903090373 -8.071741890763493 -0.9070347863176581  -4.484656029141701 -7.422322011579525 -1.346241477524027  6.815830845272265 0.2473848680216317 1.421495617723108  6.466053123578072 -0.4885010533077458 1.132223403525071  7.534500735048448 -0.3013770122261904 1.190407620895498  7.333385039882052 -0.4388136310906894 1.853108130731613  -8.62844104188904 1.391913568203538 -2.978678843243088  -8.834663493896363 0.7802291641900293 -2.842817220922107  -8.964866984491731 1.638794392789161 -2.260727265906263  -9.449985294082712 1.623146807153987 -2.766660301176825  1.004270438869718 -3.27759375930271 3.398259208920908  1.512185190503735 -3.055308442083427 4.132712852911686  1.774486502125798 -3.065448339851519 3.380893726636512  1.034465012474447 -2.623820500158106 3.82273291567508  -0.5726158159462851 -2.174894120723621 4.975528095074933  -0.2506227206490126 -2.828196897735369 4.646840289133263  -0.7519699115747982 -2.838286128855088 5.302374926209906  -1.01154976623878 -2.774227056219115 4.714468088154563  -7.882725036161519 -3.095200785588395 -2.131053534618156  -8.304153375448967 -3.507816950947977 -2.505467427547773  -8.348879840416036 -3.579854756083997 -1.864748535996871  -8.568407637758868 -2.958258011001933 -2.09992500523534  -4.496064438010974 -3.304834262698449 0.4061248282013837  -4.409250239372052 -2.821615114034796 0.797701717671002  -4.949106721411431 -3.130218981546857 0.007838368317425015  -5.278074757710411 -3.082314217742459 0.6904107316024425  -9.357636516919516 -3.324255153536698 -0.7127807112951423  -9.548532056509973 -2.84004484489583 -0.2368294224403665  -8.68616197179429 -3.018327492800408 -0.6115141662558043  -9.073368019743212 -2.458444116463708 -0.4227491778768577  -5.358258580971128 -2.741354796281944 -0.4999010014966098  -5.908926522517879 -3.091080728748226 -1.019778693436018  -5.261936453252014 -3.586050916616729 -0.8402666112360679  -5.742789407026891 -3.513897592195295 -0.0207694818667889  -4.647224719870702 7.046689064978807 4.115661185378834  -3.7558669501188 6.919602848137054 4.409246526682777  -4.079216259246464 7.370800577650605 4.058854254251248  -4.29405884574757 6.809276129138025 4.774518557874405  -6.853227561128548 -4.418845271156417 3.06729122141752  -6.909982219468085 -4.821448352409689 3.849529985846302  -6.671528935688129 -5.256723782825334 3.346034426740724  -6.22091086635653 -4.919728908178452 3.637055420825846  -8.491946222882838 -2.899370331270055 0.8244503831119137  -8.26863334503371 -3.258395695737519 -0.043392862947362  -8.038614273903699 -2.405000837182215 0.07636348761809109  -7.750671279975682 -2.974686912395031 0.2614744806830168  1.120506882957136 -0.8781944556304256 -7.229818946634177  1.321025003185027 -0.3040869152426815 -6.831435853171734  1.690573387702326 -1.433398582640204 -6.989534607778944  2.115438099513503 -0.9758695465753437 -6.556450763671121  0.3227371948120135 -2.902601923993944 9.522671940983749  0.8974161386768725 -3.165479178524946 9.400482783025844  0.2546689887600677 -3.430956960049047 9.348474275341886  0.5935223584766808 -3.215610290222383 8.73678251248182  6.257046373355058 2.300899236325122 6.513842631053313  5.498747050373735 1.73898492726102 6.273390096963119  5.51533120754419 2.389853326981054 6.37225239216848  6.372774908301007 2.138663088458804 5.905345266706695  -0.3996202526483928 -2.255823163343474 8.559679603791423  -0.6809048332529125 -1.683568525476059 8.527871718083924  -1.446516340383896 -2.218142771475874 8.070421789895748  -1.173071066926491 -1.892957838301137 8.87649277531658  0.558777816239363 -1.579861541037319 -1.882277221266129  1.354231606945281 -1.008824684365176 -2.228086375728287  1.207664184519992 -1.689527472671592 -1.669141236112895  1.184366267833601 -1.759649670578588 -2.434295568176253  4.815488110632727 0.6823197569384253 -1.052232853975905  4.707749401756606 1.278488707950481 -1.293717236515135  4.824920994462803 0.6078146696654546 -1.688146313214269  4.190942332042566 0.5752161727081667 -1.144413696115954  2.495646263614015 7.429105593265592 2.275092397179834  2.213543208871346 8.224707644494407 1.829147578773216  2.206975179975208 8.391813536856624 2.488535577606661  2.995627081181774 8.42464663591695 2.202981429947685  -2.27076898736729 8.502176570223108 -4.643868588605851  -2.547802970287586 8.690645043829498 -4.07174191144599  -3.1250510625052 8.121107806959969 -4.898864148691919  -3.342851684006852 8.347283813022271 -4.242116303396425  6.082608300769081 5.685967068867511 1.661612357909196  5.405281876631942 6.429807123806275 1.981551230985582  5.412472297674515 6.019533554400075 1.506913330292656  5.38507609625696 5.542570139898979 1.918070810784825  1.461282457544899 3.689822083360658 4.176297411723811  1.758721470134546 3.294242305055182 4.65396100575833  1.119287637684619 3.880240522460618 4.872752086759386  1.187697893901271 3.068237136664673 4.37320768871094  7.585288756301281 -0.3312590783314119 2.783143965410712  7.857195097186032 0.3700871435516883 3.550381601501742  8.063727350906717 -0.3460462778884294 3.599433394778788  8.132453378418287 -0.1081283510101171 3.014973620737301  -2.262707467897563 -8.051261623240968 3.686913884379477  -2.303830470725845 -7.435517767862198 4.482224601642429  -1.558631592275772 -7.479133661927399 3.746384489909764  -2.178254691357494 -7.064121196452307 3.873184560225318  0.8671759277366642 -7.873767360396736 -1.407622683477448  0.914114835409515 -8.340998867845544 -0.8722511396865505  -0.0868727254253453 -7.744326949099003 -1.104070870746299  0.1739638301476646 -8.606213653557839 -1.495171682607797  -6.317680887906612 -3.199502082625894 -3.078594135220349  -6.503861741387137 -2.347208633039499 -3.077116802491318  -7.039391501589797 -2.640999755719685 -2.580623541273466  -6.199847691845163 -3.147766626755937 -2.420199604597688  0.08647947405000531 -5.476905638432499 6.551083263090865  0.9992356670024127 -5.279979147627775 6.027723999057171  0.4992199940143603 -4.664547322305364 5.981637478954362  0.8196685595378057 -4.796956354396843 6.645142120793379  5.284854959416031 -2.670456849908515 -0.8435072051595544  4.809488920741395 -2.749666059057809 -1.645940215414675  4.754261740271267 -3.312253420500813 -1.266275833674986  4.338803044615107 -2.586682303836008 -1.036427376540057  1.171556950009268 3.437281906054554 -4.255537076877082  1.06715630889333 3.848895311268847 -4.985546170405897  1.913843351039932 4.168414051333753 -4.901790155745297  2.047467785587683 3.307712042737817 -4.642323769725511  8.179772598404149 -0.8208029755860398 -5.597051857470957  7.627780400711621 -0.7869799015072059 -4.755587233242336  8.220629470469291 -0.2477157027184703 -5.65064572174734  7.54340517988707 -0.2749550414880487 -5.605729763372747  7.51209711883144 1.374523696027844 4.814422086582208  7.729431830794016 0.6628796210692594 5.031344630002976  7.48011313510797 1.493356065070762 5.465654576263868  3.621878211901982 3.179838167815875 6.702544020499566  3.579644832671357 4.113749497909224 6.467915017122544  3.954709314085579 4.003786194178634 7.04373359317208  4.423481485489908 3.373463270924826 6.407080532409326  2.286224855780304 -1.786584895528 -5.589467504597113  3.14396271313042 -1.768965976994351 -5.902802350736926  2.729317946416489 -1.881900394313316 -5.149156195591804  2.569080060185029 -2.247918012234296 -6.172276176843742  8.33127384838776 1.517913171461797 1.10161062338936  8.331695742234375 1.656203232098183 0.4373387488688695  8.933413415636934 2.012917935442588 0.5119093816423682  8.730767997718063 1.138462314719757 0.733039703827614  -6.231444360026623 -1.914288851128236 -4.448497111407901  -7.039033215856226 -1.484826815753115 -4.163487597097064  -6.596929267569684 -1.374138234470353 -4.687793719247185  -7.06824526309034 -1.927321722941765 -4.781211823384101  2.504588686171527 2.317748744475529 5.974295050738507  1.798957274165108 1.664224837906392 6.361469464504749  2.303693951215558 2.395563372386663 6.810210884564912  1.736138677620628 2.364561006885785 6.332629807396622  -4.166135915582399 -8.050364238200071 -2.251091140214495  -3.969760648225478 -8.854251212753486 -2.159295393239194  -3.794730500736442 -8.717400706679824 -2.892305513359053  -3.225600168966179 -8.364129537675094 -2.598862049106182  0.05946079302477481 -3.931544099661763 -5.749947275262484  -0.4769599639762411 -4.112584015837514 -5.441623856078568  -0.2458578368326018 -3.69851927366959 -4.971472779755909  -0.6812926704226447 -3.428730210587925 -5.418174444222426  1.595470178281773 2.571248100839281 -4.507169106708717  2.045223404481297 2.54582714414
[...]
<PointData  Scalars="f_11"> 
<DataArray  type="Float64"  Name="f_11"  format="ascii">-1.0477191088177447e+00  -6.3902226019645925e-01  -9.0535291306493637e-01  -9.0830549635426361e-01  -3.4549818507539007e+00  -3.2934817538162564e+00  -3.3769923726369835e+00  -3.7349680358057400e+00  -1.4094524827935324e+00  -1.5735917932875230e+00  -1.9026478085132426e+00  -1.6012520270006072e+00  -6.2089695930888122e-01  -2.5846689272355655e-01  -5.2877778800857345e-01  -5.4006066093095684e-01  -1.9126722649118577e+00  -1.4236253002318005e+00  -1.5246777032236811e+00  -1.4862214416225303e+00  -2.8954149787214567e-01  -1.9996843766358532e-01  -2.3134947161342698e-01  -4.8048794355927915e-01  -1.5004127288434335e+00  -1.7425236059546856e+00  -1.0947654099194044e+00  -1.1271827527865736e+00  -2.7511339628459486e-01  -2.4570299971043222e-01  -2.1642657300716003e-01  0.0000000000000000e+00  -2.9352781847810161e+00  -2.5654326272405164e+00  -2.8879615024711214e+00  -2.9835104267551942e+00  -2.4914100613863166e+00  -2.5063936322430851e+00  -2.0884881773802033e+00  -2.4237812806829160e+00  -5.0185360382160138e-01  -2.1755819123883713e-01  -2.5997009517821190e-01  -2.4405689801231703e-01  -2.3997482342060019e+00  -2.6112479071648198e+00  -2.2234389674875383e+00  -2.0244519758528949e+00  0.0000000000000000e+00  0.0000000000000000e+00  -2.8705042281606036e-01  -2.0762933139333695e-01  -2.1001532741280187e+00  -1.6400559530174876e+00  -1.8476708478218162e+00  -1.6461426620162416e+00  -2.0153734164134215e-01  -3.6110821992864117e-01  -2.1862487025823230e-01  -2.1321844557889288e-01  -5.1193802936860799e-01  -2.5617037512991087e-01  -3.1299076835022205e-01  -5.0025118333595642e-01  -3.7798307589302493e-01  -4.3013362656529436e-01  -6.7603936514186724e-01  -7.1616358279223724e-01  -1.2508633880306388e+00  -1.4975303670487632e+00  -1.2754975372989397e+00  -1.5052110403183021e+00  0.0000000000000000e+00  0.0000000000000000e+00  0.0000000000000000e+00  -2.3926185261208927e-01  -2.3198371128146553e-01  -6.0604500749865431e-01  -4.8939666501770224e-01  -4.0248383111609243e-01  -4.5112657625399127e-01  -5.1624648809119866e-01  -6.2809935346658519e-01  -3.1353479880555130e-01  -4.4768360658181088e+00  -4.3060630048228834e+00  -4.3841550142911343e+00  -4.0264730950699192e+00  -2.8288779210292394e+00  -2.7793590100904053e+00  -2.7110836114029127e+00  -3.2521435495557101e+00  -7.9330869711914209e-01  -5.1792829655618811e-01  -3.6103274272624619e-01  -2.8425313934005403e-01  0.0000000000000000e+00  0.0000000000000000e+00  0.0000000000000000e+00  0.0000000000000000e+00  -6.2536833197385389e-01  -5.4731962591995031e-01  -7.4845577228890692e-01  -9.0209814211257300e-01  -2.2913880181231452e+00  -2.1527512994477349e+00  -1.9064283963467616e+00  -2.4862179600524055e+00  -8.4426337576069543e-01  -5.5666069141784569e-01  -4.5305506255891925e-01  -5.3517795853348471e-01  -3.1146740634754988e-01  -3.8750732248531045e-01  -6.1111183455619833e-01  -6.9534183740302491e-01  -8.6688178044346398e-01  -6.5542453594539218e-01  -9.9184567141591995e-01  -5.0710490112438678e-01  -1.0381308210738418e+00  -1.1324828232120967e+00  -9.1344650314399622e-01  -1.2515383210536595e+00  -5.9717047902840004e-01  -8.3743900297294216e-01  -1.1081529243367125e+00  -7.4689386258477797e-01  -2.1415600084511603e+00  -2.2691604882579033e+00  -2.1678116643088594e+00  -2.6996198539385721e+00  -2.4004598153583525e+00  -1.8716289093962100e+00  -1.6504993647701482e+00  -2.0893090235498488e+00  0.0000000000000000e+00  -3.6229813540476896e-01  0.0000000000000000e+00  -2.0563657517890141e-01  -3.6425332527287396e-01  -2.6674880840394194e-01  -2.1194442413167330e-01  -7.3816481808809775e-01  -6.3115184772929700e-01  -3.6298082963380329e-01  -6.2160579163473439e-01  -1.9287901430110450e+00  -1.5279059139886542e+00  -2.0401599115409215e+00  -1.4463894492172824e+00  -6.0325895819752229e-01  -6.1571422213216287e-01  -3.0199235098705440e-01  -4.6355334299570211e-01  -9.4056254710674148e-01  -7.1402071962742342e-01  -7.6685293954499478e-01  -4.9648661865299931e-01  -1.5503471677773177e+00  -1.5874106930635850e+00  -1.1287913308993522e+00  -1.4887670502360106e+00  -2.2449332823445511e-01  0.0000000000000000e+00  0.0000000000000000e+00  -2.3342512024633155e-01  -1.4953358454403547e+00  -1.5763626563053994e+00  -1.9904382815411024e+00  -1.8275562292199037e+00  -2.5144750089253947e+00  -2.0419419999849797e+00  -2.0874186406722237e+00  -1.2495954734057195e+00  -1.6917463312236416e+00  -1.1690917723442220e+00  -1.3735478839069426e+00  -5.7332250840083909e-01  -6.3862111286743772e-01  -9.2590544733063929e-01  -8.5341685526316080e-01  -9.7194510462705486e-01  -6.8491139547327329e-01  -6.2806740903315950e-01  -7.9633535889025364e-01  -1.3963822192540376e+00  -9.3633022577858005e-01  -1.3317858987906275e+00  -1.2318904538531339e+00  -2.2412446899646654e+00  -1.8047953456858312e+00  -2.3861779705956896e+00  -1.9335831037520457e+00  -5.4498657270980833e-01  -5.8817501302799002e-01  -9.2957598707960976e-01  -8.1738131406281844e-01  -1.0897874430439600e+00  -1.6656563929938546e+00  -1.0636827224543020e+00  -1.4765834860089433e+00  -3.4462343640572340e-01  0.0000000000000000e+00  0.0000000000000000e+00  0.0000000000000000e+00  -2.7944897126528208e+00  -2.6370996961100266e+00  -2.3525902674538628e+00  -2.4170344558474892e+00  -9.9638831728460764e-01  -1.2369816694245606e+00  -1.2172063592872668e+00  -1.2354324279716309e+00  -1.0312179330844524e+00  -1.0947737726254048e+00  -6.4393859459032121e-01  -8.8405177304711113e-01  -1.1695597360974213e+00  -1.1227521511428422e+00  -6.3758536760746254e-01  -6.9773436157333713e-01  -8.6600473551062285e-01  -5.4583356459206933e-01  -9.7181204506503960e-01  -6.9301166190436547e-01  -1.7911084562166655e+00  -1.6425911807251499e+00  -1.9686246662432354e+00  -1.4584095064315148e+00  -3.0724144166665995e-01  -3.1273564445470625e-01  -1.9341767977221308e-01  -3.3819090865020009e+00  -3.3335661247407549e+00  -3.4107056823328827e+00  -2.9688765454546240e+00  -2.5874900209328217e-01  -2.9287204938511374e-01  -3.6725910684376328e-01  0.0000000000000000e+00  -5.6271599745686185e-01  -3.7295405176869578e-01  -2.4035423650475601e-01  -7.0001662603634274e-01  0.0000000000000000e+00  -2.8493720746540524e-01  0.0000000000000000e+00  0.0000000000000000e+00  -1.0592278066529752e+00  -1.1227481574907483e+00  -6.8975486079607096e-01  -8.2205621583692434e-01  -2.2536899726976665e+00  -1.9308600097176993e+00  -2.5390210834932052e+00  -2.1710751200163836e+00  -4.4370418949550556e+00  -4.6605594126141670e+00  -4.4056251574822953e+00  -4.9384707680786208e+00  -2.4737123624802657e+00  -2.1315920810071041e+00  -2.4967090288898750e+00  -2.1480411735808809e+00  -3.2870056234791933e-01  -3.4948174124109954e-01  -7.7003096989523001e-01  -4.7256544016317847e-01  -1.6422776023544627e+00  -1.2428975658291348e+00  -1.5360669702544552e+00  -1.5679860357134492e+00  -3.1013589365425892e-01  -2.2022749053862400e-01  -6.2401892786911040e-01  -3.0419224575976023e-01  -2.4256496896580770e-01  0.0000000000000000e+00  0.0000000000000000e+00  -2.3765601432845498e-01  -7.5187541477346864e-01  -9.5451919560349108e-01  -8.6100454811715810e-01  -5.2149778719225537e-01  -5.4417623425339245e-01  -6.7235251912581939e-01  -9.1521760909923688e-01  -7.2538722378757348e-01  0.0000000000000000e+00  -2.5016770168644220e-01  0.0000000000000000e+00  0.0000000000000000e+00  -3.2104974920622533e+00  -3.4027909637570195e+00  -3.5415575772642751e+00  -3.6354567213935298e+00  -1.9855862313077968e+00  -2.2868352512223935e+00  -3.9711000323100276e-01  0.0000000000000000e+00  0.0000000000000000e+00  -2.7822990751256826e-01  0.0000000000000000e+00  0.0000000000000000e+00  0.0000000000000000e+00  -2.8514147009552954e-01  -9.3089477636374518e-01  -7.8267205335142798e-01  -8.9861693866795123e-01  -1.2208747942319822e+00  -3.9985082725976753e+00  -3.9953729051305849e+00  -3.8555458095181843e+00  -4.2331624128559620e+00  0.0000000000000000e+00  -3.4658101460984980e-01  0.0000000000000000e+00  0.0000000000000000e+00  -7.2240350201375281e-01  -8.5458222696698471e-01  -1.0827213789964791e+00  -5.3739072624223960e-01  -3.8471500618270897e+00  -3.8116514876075920e+00  -4.2284147922914226e+00  -3.8615607349435734e+00  -4.1903230890409660e+00  -4.0144080817575194e+00  -3.6281972750448426e+00  -3.9745670655676810e+00  -1.0335640013627776e+00  -1.6211421080563779e+00  -1.3948873596359457e+00  -1.3079532641500631e+00  -2.1749163031040180e+00  -2.2006092886747322e+00  -1.6917003639147474e+00  -2.1007961036233653e+00  -3.0296227348986782e-01  0.0000000000000000e+00  -2.9627977582631865e-01  -1.8877097259573111e-01  -2.2292127469732873e-01  0.0000000000000000e+00  -9.6008534664514611e-01  -8.9780554788968780e-01  -5.6786225417656355e-01  -6.2423208672013175e-01  -4.2306535212513680e-01  -4.9240201339176581e-01  -2.8035605964039390e-01  -6.3188923823916021e-01  -1.0540151648814016e+00  -1.1708543782352081e+00  -8.6211918070147409e-01  -6.8004780830834000e-01  -4.0765204665647596e+00  -3.5963545162014996e+00  -3.5374425846803366e+00  -3.6868471399534184e+00  -1.5912011405408053e+00  -2.0385796939350622e+00  -1.4822254878596202e+00  -2.0479968449997346e+00  -2.5652154779385311e-01  0.0000000000000000e+00  -2.6295043123730544e-01  0.0000000000000000e+00  0.0000000000000000e+00  -2.3255589508299376e-01  -2.2925604713934628e-01  -3.8036132107017268e-01  -3.9675176136440454e-01  -8.6265986646705362e-01  -6.3473174575470359e-01  -7.9332180614120451e-01  -9.7631497922592125e-01  -6.0532239905497698e-01  -7.6490653959217048e-01  -6.0831065731434553e-01  -2.1012385657356988e-01  -2.6515993193470994e-01  -4.9913282958014543e-01  -2.1619824162085455e-01  -3.0899970507827610e+00  -2.7385215814381376e+00  -2.4085537494754856e+00  -2.6060915914342235e+00  -5.3229889099568772e-01  -5.3941509945517929e-01  -6.6603740030734693e-01  -3.5068587922528011e-01  -3.3536485952726856e+00  -3.1216316011535974e+00  -3.5515782048879436e+00  -3.4370611721805737e+00  -1.6776980751664186e+00  -1.9051073896415316e+00  -2.1392319229328365e+00  -1.8964017932567212e+00  -2.1469292089933623e+00  -2.6372858450313612e+00  -2.1606635071421647e+00  -2.4635300699525891e+00  -3.4386088843172220e+00  -3.3629650344215047e+00  -3.4305693364734040e+00  -3.6648602525057163e+00  -4.5544163631926828e+00  -4.7384032604948159e+00  -4.9034105405902864e+00  -4.6307545655129703e+00  -5.2284708423479487e-01  -5.0072604593148884e-01  -6.4293425888720845e-01  -6.2386676878243474e-01  -2.5847091291062135e-01  -2.5538391024972623e-01  -1.1629040105158184e+00  -1.5331632072533667e+00  -1.6030715528357422e+00  -1.4928070382301113e+00  -4.7117933856872551e-01  -6.0551076004265858e-01  -2.4176166622431938e-01  -2.7989308755971870e-01  -2.4680485016539095e+00  -2.2116883788871275e+00  -2.1609062146467726e+00  -2.6125002488311648e+00  -1.2825027232319368e+00  -1.4730272726108959e+00  -1.6312485840553315e+00  -1.9044505892686938e+00  -2.1456609690193131e+00  -2.5480180382340838e+00  -2.5914723320125193e+00  -2.0295725554820079e+00  -8.6007255218103162e-01  -3.4871213433251264e-01  -5.4360939338578740e-01  -4.7293016776930874e-01  -3.2966881662005804e-01  -2.1312809795536902e-01  -2.1024342482110714e-01  0.0000000000000000e+00  -2.1414451535328063e-01  -2.0726347173740170e-01  0.0000000000000000e+00  0.0000000000000000e+00  -2.6436228477205170e-01  0.0000000000000000e+00  -2.1091375011656921e-01  -3.5423641886256213e-01  -2.6122952905577748e+00  -2.5027772159457271e+00  -2.9696088574151820e+00  -2.7111391779930476e+00  -3.8126508396998213e+00  -3.5481197938323268e+00  -3.8474911253374096e+00  -3.1756306971374824e+00  -1.8324543992941575e-01  0.0000000000000000e+00  0.0000000000000000e+00  0.0000000000000000e+00  -1.8795832723388142e-01  0.0000000000000000e+00  0.0000000000000000e+00  -2.6721021509293441e-01  -2.5312389146898484e-01  0.0000000000000000e+00  0.0000000000000000e+00  0.0000000000000000e+00  0.0000000000000000e+00  -3.1296461848657608e-01  -2.9874395975977669e-01  -2.8461106732908731e-01  -1.3172775593444095e+00  -1.5887008882794462e+00  -1.2817650263135993e+00  -1.7532260655605123e+00  -2.1134759805858336e+00  -2.1046681184431675e+00  -1.7880216102864293e+00  -1.7301576569430235e+00  -1.8525852168813355e+00  -1.7468118769353373e+00  -1.8036374780418576e+00  -2.1807624388316267e+00  -6.9142772923356521e-01  -5.9715854306753913e-01  -3.5215492698751727e-01  -5.6203911291924047e-01  -1.0801978097977620e+00  -1.4900135293592720e+00  -1.2777553010181986e+00  -9.5833747359359855e-01  -1.5647427060187220e+00  -1.4358415647890990e+00  -1.0820364572884715e+00  -1.3357742059688489e+00  -3.0091549534485593e+00  -2.9675961508844826e+00  -3.1011885571241509e+00  -2.5518877082333260e+00  -1.3332161030272605e+00  -9.2055226758386055e-01  -1.5024448509786710e+00  -1.1424199984137460e+00  -1.0369922683379766e+00  -6.8972008456043221e-01  -1.0990305796122910e+00  -9.8914808012691091e-01  -1.0707258022069404e+00  -7.4358804210528429e-01  -7.7706973817073643e-01  -2.9671877310197270e+00  -2.7422508339979563e+00  -2.9755026787875707e+00  -2.4452234964843855e+00  -1.5965674685685507e+00  -1.7457826963507488e+00  -1.3590984779844433e+00  -1.1408797832255191e+00  -3.7909612346547346e+00  -3.9792316636309999e+00  -4.3778952848318031e+00  -2.8913515084241603e-01  -4.2157443836827768e-01  -7.3679853304417542e-01  -5.3674842249318011e-01  -2.1490251111713796e-01  0.0000000000000000e+00  -2.6721286375309716e-01  -2.0378445729766345e-01  -4.0476805212618032e+00  -3.5591737622506554e+00  -3.7982875279645483e+00  -3.6328780140503536e+00  -2.5934478398147878e+00  -2.1606512193031104e+00  -2.2039753038455072e+00  -2.6485907183515458e+00  -5.9772103394659981e-01  -5.4887281772410013e-01  -6.1487288354892378e-01  -2.9032421799465030e-01  -5.0223204580985570e-01  -4.6029370179658274e-01  -2.2460802421882398e-01  -2.7669078641265941e+00  -3.1402468684325822e+00  -3.0879103222527537e+00  -2.8203838330570963e+00  -3.3910953913028581e+00  -3.0041366999637233e+00  -3.3657804711261483e+00  -3.1664123009775538e+00  -2.8234125436309393e-01  0.0000000000000000e+00  -3.6616018660923505e-01  -2.3480637547277655e-01  -2.9559780988951617e-01  -5.6389717742302148e-01  -7.2870871732955034e-01  -3.4851619736165401e-01  -1.9102696638949828e+00  -1.5761233429912802e+00  -1.9358306534806684e+00  -1.6733404082713637e+00  -6.4363629724170779e-01  -3.3347336183959453e-01  -3.5297033683365592e-01  -7.0333137592937112e-01  -2.6292947471521062e+00  -2.7635122854965650e+00  -2.7043068450360406e+00  -2.3158331228092113e+00  -1.1818981463958906e+00  -9.3590023651479270e-01  -1.0742145693697234e+00  -7.7456293625656125e-01  -2.8974879149319466e+00  -3.3776860735217813e+00  -3.2997499250322595e+00  -3.0489740616269940e+00  -7.5749031642257603e-01  -1.1872691710662129e+00  -1.2192346163871850e+00  -9.1879259281633507e-01  -2.6026370614419331e-01  -3.8327541118279534e-01  0.0000000000000000e+00  -3.0745532199741754e-01  -1.7073144950321295e+00  -1.9137885541272845e+00  -2.1231047765996163e+00  -1.9701592115006645e+00  -2.3290839880509415e-01  0.0000000000000000e+00  0.0000000000000000e+00  0.0000000000000000e+00  -1.9892383689278832e+00  -2.1763877017865698e+00  -1.5613396123153578e+00  -1.9599103349852633e+00  -1.7089112381979297e+00  -1.5973223873384927e+00  -2.1814082943804833e+00  -2.1260848784146558e+00  -1.0158636251172055e+00  -7.2691959887613888e-01  -6.2832436236002498e-01  -2.3327154900036690e-01  -2.0408002338879089e-01  0.0000000000000000e+00  -3.5827423527471058e-01  -8.5981641527882358e-01  -8.0150207024192466e-01  -1.2336887372210739e+00  -8.4637963007618811e-01  -8.8710822428194303e-01  -7.2261677381780531e-01  -6.2799164173216793e-01  -4.9549547782483860e-01  -1.5307501607244691e+00  -1.1680349548464974e+00  0.0000000000000000e+00  -2.3460179642283499e-01  -2.8948830823375699e-01  0.0000000000000000e+00  -1.0309839742570539e+00  -9.4758443072772913e-01  -6.9660633082246759e-01  -1.0065287615718008e+00  0.0000000000000000e+00  -3.5418329859545339e-01  0.0000000000000000e+00  -2.5773165998332598e-01  -5.3892226344766070e-01  -2.5548041725076504e-01  -2.6656088215172702e-01  -2.5498918278655003e-01  -3.8754072938161716e-01  -3.2891626314166633e-01  -3.0042655562477033e-01  -7.5002933101327007e-01  -1.2730117738779481e+00  -8.4479944197650292e-01  -8.1378328688817725e-01  -1.1655188799033362e+00  -5.8036790493841994e-01  -6.9549095680573636e-01  -5.1403744131535989e-01  -7.3821427228522563e-01  -3.9086768672151567e-01  -7.6256981565137083e-01  -5.3938523489249879e-01  0.0000000000000000e+00  -2.7110676734529143e-01  0.0000000000000000e+00  0.0000000000000000e+00  -1.3915028977986443e+00  -1.1066578096612303e+00  -9.8093024008530871e-01  -1.1148292104619875e+00  -2.1316615200024688e-01  -2.8353627506270851e-01  0.0000000000000000e+00  0.0000000000000000e+00  -3.2030329791345907e-01  0.0000000000000000e+00  -2.3982577619879511e-01  0.0000000000000000e+00  0.0000000000000000e+00  -3.4673645953379839e-01  0.0000000000000000e+00  0.0000000000000000e+00  -1.2543332200666482e+00  -1.1926031589413437e+00  -1.6319831799577693e+00  -1.4090574623911543e+00  -2.3878238340670283e-01  -3.8265126012334250e-01  -2.7084976941811389e-01  -6.4793683923664647e-01  -2.1508606992203778e+00  -2.0792475311686758e+00  -1.8624742415736002e+00  -1.6786717641593312e+00  -1.3048616710611312e+00  -1.0475898740186669e+00  -9.2581596291423585e-01  -6.7936065152807834e-01  -9.8912526806476442e-01  -5.7801553346532719e-01  -1.4391441852361304e+00  -1.1673651526598328e+00  -1.0955228277923710e+00  -1.0879369702508788e+00  -1.3094243590958747e+00  -1.5761981021137397e+00  -1.2805253774153562e+00  0.0000000000000000e+00  -3.0081900672211570e-01  -2.5595596174361435e-01  0.0000000000000000e+00  -3.7712472118322543e-01  -5.9495636654179640e-01  -2.5009835807517466e-01  -4.2206112990823497e-01  -1.1102232732779844e+00  -1.5991094778935597e+00  -1.2137567005009797e+00  -1.3367540554730835e+00  -8.9366927152379172e-01  -7.2507275399134818e-01  -2.2674628215828703e+00  -2.3151955687494419e+00  -2.4278704326319329e+00  -2.6266228143462551e+00  -1.3055324130824588e+00  -9.5808674359126500e-01  -8.8809378239942216e-01  0.0000000000000000e+00  -2.4172364902712454e-01  0.0000000000000000e+00  0.0000000000000000e+00  -3.6253750835431831e+00  -3.3914972017268354e+00  -4.0017027235311957e+00  -3.8053135744046873e+00  -3.8312079141245441e+00  -3.5538958952999535e+00  -3.5167757123098546e+00  -3.4156578871705543e+00  -9.6662594760383147e-01  -1.0877890026408175e+00  -1.1512187359405297e+00  -1.2479686721037342e+00  -3.1927032823228557e-01  -2.4861165680639730e-01  -4.5171298170028351e-01  -2.8249792978890798e-01  -2.7753821203688358e+00  -2.8319571603661031e-01  -3.8815588508108478e-01  -6.7801470270613440e-01  -3.0906347865382588e-01  -6.6446362084185562e-01  -3.8259332465834134e-01  -3.6707181670732897e-01  -6.0549708993789819e-01  -6.1007959226454267e-01  -7.9386002422070034e-01  -3.8739160029889702e-01  -4.1236387642140455e+00  -3.5544804460154591e+00  -3.8156473116861394e+00  -3.6506614038921952e+00  -2.0477360196783136e+00  -1.9710949377315976e+00  -2.4984885907453385e+00  -2.3828706841238665e+00  -8.4666092770752988e-01  -1.1911376376661704e+00  -8.6414328362183790e-01  -1.1741325815131409e+00  -4.6027264220908376e-01  -2.7077632346699332e-01  -2.1533664408119430e-01  -3.0913068704441549e-01  -2.4102634180591526e-01  -3.4292317598253230e-01  -2.8481063542738089e-01  -6.2992704948403355e-01  -8.3531779059150535e-01  -1.4093716113614529e+00  -3.4685806539133818e-01  -4.2265736809775362e-01  -2.2119090575140662e-01  -5.2610915386559598e-01  -1.6520174065488702e+00  -2.2209728924663934e+00  -1.8722728171093270e+00  -2.0519008875281624e+00  -1.1322482465177170e+00  -1.0673757324626856e+00  -1.5318193796164561e+00  -2.4362815755772357e-01  -5.4533477874977487e-01  -3.0608321146602063e-01  -3.7536065928223161e-01  -2.7708060079427987e+00  -2.3579643478003756e+00  -2.9222840327764663e+00  -2.8906640424542034e+00  -2.780779822927222