<?xml version="1.0"?>
<VTKFile type="UnstructuredGrid"  version="0.1"  >
<UnstructuredGrid>
<Piece  NumberOfPoints="14925" NumberOfCells="29208">
<Points>
<DataArray  type="Float64"  NumberOfComponents="3"  format="ascii">0.0001 3.141592653589793 0  0.0001 0 0  10 0 0  10 3.141592653589793 0  5.00005 0 0  5.00005 3.141592653589793 0  2.500075 3.141592653589793 0  2.500075 0 0  7.500025 3.141592653589793 0  7.500025 0 0  0.0001 1.570796326794897 0  3.7500625 1.570796326794897 0  6.2500375 1.570796326794897 0  10 1.570796326794897 0  7.862001559812034 1.570796326794897 0  2.138098440187966 1.570796326794897 0  8.7500125 0 0  8.7500125 3.141592653589793 0  1.2500875 3.141592653589793 0  1.2500875 0 0  5.00005 1.858845240164379 0  6.250037499999999 3.141592653589793 0  6.250037499999999 0 0  3.7500625 3.141592653589793 0  3.7500625 0 0  8.931000779906018 1.138722956740672 0  1.069099220093983 2.002869696849121 0  9.137217245313296 2.166969904913166 0  0.8628827546867042 0.974622748676627 0  5.444055470093983 0.9294226200821897 0  4.37505625 0.7853981633974483 0  3.12506875 2.356194490192345 0  3.12506875 0.7853981633974483 0  7.056019529906017 0.9294226200821896 0  6.87503125 2.356194490192345 0  8.125018750000001 0.6830809056723288 0  1.87508125 0.6830809056723286 0  1.87508125 2.458511747917465 0  8.125018750000001 2.458511747917465 0  4.227257172583344 2.356194490192345 0  5.772842827416656 2.356194490192344 0  6.283226702489361 0.7853981633974483 0  2.944080470093983 1.570796326794897 0  10 0.7853981633974483 0  0.0001 0.7853981633974483 0  0.0001 2.356194490192345 0  10 2.356194490192345 0  0.62509375 3.141592653589793 0  9.37500625 0 0  7.129919068614345 1.663662154617078 0  8.555758405105534 1.748780361562376 0  1.498222782346649 1.277560395743571 0  0.62509375 0 0  9.37500625 3.141592653589793 0  5.591854547510639 1.570796326794897 0  4.866384443567382 2.500218946877086 0  4.431148576819988 1.471408279156237 0  7.562570827628298 2.14233510305035 0  2.479397453408286 0.9868525867704045 0  2.479397453408286 2.154740066819389 0  8.125018750000001 0 0  6.875031249999999 3.141592653589793 0  6.875031249999999 0 0  3.7500625 0.6413737067127071 0  8.125018750000001 3.141592653589793 0  4.37505625 3.141592653589793 0  3.12506875 0 0  4.37505625 0 0  3.12506875 3.141592653589793 0  1.87508125 3.141592653589793 0  1.87508125 0 0  5.62504375 3.141592653589793 0  5.62504375 0 0  0.6373651919812298 2.490453741279228 0  9.36273480801877 0.6511389123105649 0  1.626266218118388 1.842914737169679 0  8.709302163781034 0.590215077850147 0  1.211585410289149 2.563967574589986 0  0.6276564342773208 1.556599724095527 0  9.37244356572268 1.584992929494266 0  8.360065387112538 1.207977563812813 0  4.979171783222462 1.278104398603826 0  6.323937038708328 2.559025743191448 0  3.676162961291672 2.153363237193241 0  7.540735336218968 0.5902150778501473 0  4.944606358071361 0.5972534995393913 0  1.35139474258057 0.7677909595983964 0  0.9258178284902007 0.4429484923993552 0  8.619721886106422 2.273174886772848 0  9.062509374999999 2.701516494683829 0  5.920946023755319 1.163489310219017 0  7.765679302648074 1.059435642675671 0  6.719861293169318 1.334094859317743 0  5.937540625 0.4066057651513061 0  0.4024581567074045 2.025918461436456 0  9.597641843292596 1.115674192153337 0  6.450451516897735 2.05268722108079 0  3.972065235046992 1.106085016753802 0  3.347071485046991 1.250109473438543 0  3.437565625 2.748893571891069 0  0.0001 0.3926990816987241 0  2.680958073905149 2.644159684123625 0  2.680958073905149 0.4974329694661683 0  9.581123160927275 2.664239932795363 0  7.187528124999999 2.748893571891069 0  0.0001 1.178097245096172 0  10 1.963495408493621 0  5.360445548995425 2.685193838470795 0  0.4798062466241316 0.65971542434812 0  6.562534374999999 0.3801949010952893 0  7.662325157950951 2.623240491543493 0  7.076707742420282 0.4430605536530298 0  5.409176100387387 0.4402970819291669 0  3.347071485046991 1.815646868082978 0  2.187578125 2.800052200753629 0  1.562584375 0.3415404528361643 0  8.006622167102167 2.010769138520943 0  8.510146683909342 2.733597469700151 0  2.187578125 0.3415404528361643 0  2.034653445159346 1.118623779000734 0  4.07915397624468 1.90851269590516 0  4.541594892051991 1.920629870334269 0  4.062559375 2.79379368475285 0  5.92094602375532 1.908512695905159 0  5.443751351171976 2.018478121082082 0  1.054444000564961 1.390574870652366 0  10 0.3926990816987241 0  0.0001 2.748893571891069 0  5.925491483072928 2.791526233486119 0  2.040069663094014 2.033743770548022 0  4.062559375 0.3206868533563536 0  3.363666086291672 0.3926990816987241 0  9.064068889431647 0.3198251279249368 0  0.4374627494534382 1.101680108099632 0  9.59092152645006 2.159844949342983 0  1.562584375 3.141592653589793 0  7.465949397725071 1.380646344489124 0  4.491958894398744 2.722267313592535 0  8.944112986172037 1.567221474853708 0  1.502006039526382 2.251220976114191 0  8.437515625 0 0  7.879781345460799 0.3415404528361644 0  4.687553125 0 0  4.565704619973006 0.4063862430635075 0  0.8868836031293965 2.82084128584927 0  2.541089455140974 1.726970992226768 0  2.944080470093983 1.157243645616362 0  2.882388468361294 1.998565401387517 0  6.562534374999999 3.141592653589793 0  6.704617114492611 2.743257276104033 0  6.348472595665433 1.181555644756047 0  6.686887098332332 0.7647769468832609 0  10 1.178097245096172 0  0.0001 1.963495408493621 0  10 2.748893571891069 0  6.843589631275701 1.951450207277149 0  4.744851233741905 0.9486975217382605 0  7.527585288272281 1.759800404062 0  3.050282613793835 2.761393479102829 0  5.812065795239091 0.7824784312703599 0  5.121150351070007 2.218698317572743 0  1.579075044618051 2.736115607946811 0  8.377234097600704 0.3854435384894785 0  3.871699778351044 2.47216748715099 0  7.181332546772718 2.128806810012463 0  2.450824989059339 1.361864570069899 0  6.128072492291578 2.241111936639491 0  0.312596875 3.141592653589793 0  0.312596875 0 0  9.603532301949128 0.3299919200526163 0  7.087029114892337 1.297140253391952 0  9.690503030747252 1.767145867644259 0  3.480766707143378 0.9008569170977301 0  1.281244369939345 1.691469223729476 0  0.3789332797910843 2.768117494474546 0  7.405474488611323 1.023767499718294 0  8.197464712613735 1.704283467610474 0  8.829505187460237 1.981488121669246 0  8.617977826446058 0.9461845570835037 0  2.242367458448006 0.7054024298231112 0  2.242367458448006 2.436190223766682 0  6.599261530476556 1.679341357255812 0  1.827430762149008 1.403949790123639 0  1.705445465356987 0.9922343846206658 0  5.093777149753309 0.9145305855421577 0  7.985944142176291 2.800052200753629 0  3.023845770715099 0.4550633902831641 0  1.212598770888998 1.083798167315111 0  7.361330767051319 2.4348771090106 0  4.736430140643114 1.634539328222075 0  4.446092973397556 1.124888053664002 0  4.07915397624468 1.442627076487669 0  8.668320631360906 1.361210940359972 0  0.4688453125000001 0.3114456580915571 0  5.220678019891114 1.560167723948164 0  2.791972346338721 0.8532391514414852 0  2.788436847598227 2.323472830767271 0  5.435237010250912 2.355976626630419 0  5.311977133142013 1.23757422098776 0  2.812571875 3.141592653589793 0  0.7403535340195824 2.146712665531629 0  9.259746465980419 0.9948799880581641 0  8.97878780659304 0.8003506021648112 0  8.357202073009447 2.039097707268386 0  2.812571875 0 0  9.367907401919343 2.40780534515119 0  4.580274452320467 2.279751818283671 0  4.817776975148815 2.844964137267953 0  5.92094602375532 1.500090687472439 0  9.667799872393218 1.43802790615204 0  9.66641627755347 0.7892344667872618 0  0.3336837224465293 2.352358186802531 0  7.848464880067485 2.292115781116852 0  1.234036423520751 0.3284179054423948 0  3.458356885416851 2.411661724644045 0  3.657400245035952 1.168688715722949 0  4.07763243689079 0.6479764227267113 0  3.74176519937766 0.3206868533563536 0  0.3106706313629717 1.421907687668183 0  9.687503124999999 3.141592653589793 0  9.147634125673042 1.832654296828633 0  6.411623261342027 2.863256458453339 0  1.010444743613833 2.316405055422718 0  0.7143775135839606 1.253125122972041 0  0.7976011956906888 1.829962104269887 0  9.202498804309313 1.311630549319906 0  3.746286012514421 2.82391100343538 0  6.253095395380782 0.4657631871779552 0  7.187528125 0 0  7.812521875 0 0  7.187528125 3.141592653589793 0  7.812521875 3.141592653589793 0  3.437565625 0 0  4.062559375 0 0  4.062559375 3.141592653589793 0  3.437565625 3.141592653589793 0  0.937590625 3.141592653589793 0  1.562584375 0 0  0.937590625 0 0  5.937540625 3.141592653589793 0  1.87508125 0.3137317644640746 0  9.062509375000001 0 0  8.437515625 3.141592653589793 0  5.312546875 0 0  6.562534374999999 0 0  5.312546875 3.141592653589793 0  5.937540625 0 0  9.687503124999999 0 0  9.062509375000001 3.141592653589793 0  2.187578125 3.141592653589793 0  2.187578125 0 0  4.687553125 3.141592653589793 0  8.027599107556444 1.274851414478769 0  8.776817793918029 2.553811980948966 0  5.614557885698233 1.184883644410141 0  7.3437765625 0.2744713252348992 0  1.876873409013996 2.829500648301319 0  0.3703429385442923 1.721819240206537 0  3.334575597849222 2.126376848316784 0  5.106728553498623 0.311103271451938 0  3.974243990867662 2.189904727969763 0  8.054375265089805 0.9753553520981243 0  4.795775841275802 2.074897059829389 0  8.428480361156424 0.7078693706394132 0  7.252426151871057 0.6941560627932619 0  7.833346062821783 0.6336970630390278 0  8.664866837795103 0.2906385870168559 0  8.804923706219927 2.849595283783749 0  2.265660699588423 1.839660022620353 0  3.780236508085714 1.870594539871024 0  6.603135768154119 2.467531609105982 0  6.020187877674884 2.513892110567693 0  5.118398208394156 2.864553705714642 0  4.694767045196405 1.345291441150126 0  1.78599230750683 2.179481418213513 0  1.58011720780916 1.556189692907296 0  1.362601384804214 1.974858021621886 0  1.913097869004962 1.765005105313348 0  1.17885009161338 2.856245309257462 0  8.409078795910528 1.496049538349494 0  5.661544089648635 2.639650208719372 0  4.66890525797
[...]
<PointData  Scalars="f_16-0"> 
<DataArray  type="Float64"  Name="f_16-0"  format="ascii">-1.5802669275009648e-01  -1.5802407330491988e-01  0.0000000000000000e+00  0.0000000000000000e+00  -2.8180076944261060e-03  -2.8182405334533965e-03  -9.1482200642571260e-03  -9.1467005627824151e-03  -9.0297195622298352e-04  -9.0303836591728106e-04  -1.5802563741330974e-01  -4.8428815702301073e-03  -1.6524145950695104e-03  0.0000000000000000e+00  -7.3290178841574946e-04  -1.1426378874709682e-02  -3.8176118297580578e-04  -3.8180371524530369e-04  -2.3360570933572588e-02  -2.3360443822237984e-02  -2.8168010483641146e-03  -1.6532695241973326e-03  -1.6533303674791948e-03  -4.8444721836480879e-03  -4.8452136534917417e-03  -3.1892720591198960e-04  -2.8476438147138926e-02  -2.5111058325294532e-04  -3.7224012744219853e-02  -2.3367703520260500e-03  -3.6733362832158246e-03  -6.5284503522708304e-03  -6.5278455122801497e-03  -1.1358360310103476e-03  -1.2404873977948708e-03  -6.2012189529121026e-04  -1.3692591413628809e-02  -1.3692757919905476e-02  -6.2011540711918859e-04  -3.9162300230454221e-03  -2.0326809438287654e-03  -1.6283273154505575e-03  -7.1615215816430693e-03  0.0000000000000000e+00  -1.5802407030420040e-01  -1.5802634409573704e-01  0.0000000000000000e+00  -5.5386519210994190e-02  -1.7718817663991000e-04  -1.0946929597171521e-03  -4.5148116038259322e-04  -1.8465392224639676e-02  -5.5314697661427874e-02  -1.7726196117043554e-04  -2.1952269033551608e-03  -2.9800597252464403e-03  -3.5855651118361269e-03  -8.7174193430364702e-04  -9.2534754619562915e-03  -9.2537044984890918e-03  -6.2066300587301847e-04  -1.2411482997994987e-03  -1.2412203797306329e-03  -4.8430162994206865e-03  -6.2067566315677581e-04  -3.6751736002975286e-03  -6.5315020288419408e-03  -3.6746685543400004e-03  -6.5302780665868051e-03  -1.3698497557693153e-02  -1.3697738896051276e-02  -2.1656491356393344e-03  -2.1657997019478631e-03  -5.3930417314149291e-02  -1.8063412262425466e-04  -1.6575669816490359e-02  -3.9579608559304151e-04  -2.4297914504247918e-02  -5.4941913447456907e-02  -1.7768894723588962e-04  -5.2575079295625032e-04  -2.8414786250307877e-03  -1.5991381201002294e-03  -5.0098889250875002e-03  -8.8236622447661057e-04  -2.8833409114111834e-03  -2.1123395832619987e-02  -3.4096925733669299e-02  -4.2802336280926888e-04  -2.7531310150555815e-04  -1.9074612107276732e-03  -7.7632178172204979e-04  -1.3348959354007096e-03  -1.8939973877351234e-03  -9.2013417683186355e-02  -1.1101070027358932e-04  -1.5108277795431310e-03  -4.3816816219147082e-03  -5.8513684217852907e-03  -5.6029062092960999e-03  -1.5802411546189538e-01  -8.2501906033739750e-03  -8.2503519468354377e-03  -1.1580194703481342e-04  -1.0634566952743897e-03  -1.5802458650586629e-01  0.0000000000000000e+00  -2.4207921520120108e-03  -7.6014372357335283e-02  -1.4359507072862210e-03  -8.2426344118369124e-04  -1.1243094426750025e-03  -2.3715291117409961e-03  -5.8513010391396149e-03  -1.1066713575675215e-02  -1.7477952526798103e-02  -6.6990660271408226e-04  -4.6852536831378964e-04  -1.1066678126562139e-02  -1.2241461711187583e-02  -4.1786567973954901e-03  -3.4199540637342412e-03  -4.2097968283428579e-03  -1.9075144433078025e-03  -2.3370316036927762e-03  -2.8975140682464734e-02  0.0000000000000000e+00  -1.5802680785898665e-01  -1.9038964419521884e-03  -1.2196965644713944e-02  -4.2098009878638850e-03  -5.8049805573559448e-03  -2.7484953622267203e-04  -8.4455257030652237e-02  -1.1296485877393590e-04  -1.7491544700287329e-02  -9.1906726227588208e-04  -3.4935334008458284e-03  -3.1454801012611463e-04  -1.8409255632093929e-02  -4.9642441567734354e-04  -7.2512747500275067e-04  -3.2153525707626549e-03  -3.3853987777272181e-03  -3.5959111809408355e-02  -8.9274862100242724e-03  -7.1610892695014574e-03  -7.3974476234543278e-03  -1.4367381287430296e-03  -1.3447112116412427e-03  -1.5816148147139884e-03  -1.3556209029326549e-03  0.0000000000000000e+00  -1.5802588999773295e-01  0.0000000000000000e+00  -1.2591445720393890e-03  -3.1370518793840999e-03  -8.8870616475465725e-04  -6.7804771462410887e-03  -1.9988352175438194e-03  -2.6769111756525690e-03  -1.7236173302771534e-02  -5.1914594226977668e-04  -4.5833598807897393e-03  -1.0667361929163086e-03  -9.4110427869998833e-03  -1.7434952401101729e-03  -1.1199680119101273e-01  -1.1194006917590202e-01  -1.0935373353688067e-04  -1.1183487787196072e-03  -8.4498679258353330e-05  -5.4887168232969422e-03  -2.2620538612414851e-02  -9.7248175558733260e-02  -9.4943695616316157e-04  -5.9037512836241062e-04  -3.5359644004252230e-04  -4.2866360743055922e-04  -1.0687017671310596e-02  -1.0686566215037904e-02  -1.4118153541194749e-03  -1.4179607935545249e-02  -1.5559032937272559e-02  -2.7080801964395086e-03  -6.7883612604749519e-04  -6.8723456879757798e-03  -2.4274884144200096e-02  -9.7197212646161579e-04  -3.1482586821600309e-03  -3.5625915404386126e-03  -4.1786802220628453e-03  -4.1044000603456199e-04  -7.8152340477751867e-02  -2.5671349131000539e-03  -7.7637747983896185e-03  -7.7783453530196533e-03  -2.3455489019238427e-03  -2.4704144782008420e-03  -7.6823332545856967e-03  -4.4911653334580519e-02  -2.1235813672007030e-04  -3.0295204835806375e-04  -5.2688776078595840e-04  -7.6824413513034637e-03  -1.7905536608371552e-04  -3.3640938203131575e-03  -3.0419920232073335e-03  -1.9074055379404036e-03  -9.0944016286162904e-05  -9.1324992095545020e-05  -1.0730090125769602e-01  -7.3893787634164221e-04  -2.3741032189488594e-02  -5.5477948153316069e-03  -5.0534243524473403e-03  -4.1815039007325810e-03  -4.8619289147486706e-03  -1.1234414305691506e-01  -8.5513742976157654e-05  -2.4777889521230851e-04  -1.5377643019813547e-03  -3.0566118750717703e-02  -4.6954776900016891e-02  -4.1009691836570786e-02  -2.3032705289425506e-04  -4.8517874503400281e-03  -1.6502566551546160e-03  -1.0641231725558502e-03  -7.5570319329406482e-04  -1.0641327974098465e-03  -7.5570072667180920e-04  -5.6048511914095758e-03  -4.2111884114204639e-03  -4.2113208275016750e-03  -5.6037121090364173e-03  -3.3592596446887904e-02  -1.7488165215064796e-02  -3.3601539858751778e-02  -1.8948506061781784e-03  -1.3694388168104223e-02  -2.7564795713578893e-04  -4.9646537251466177e-04  -2.4710129629301469e-03  -1.4366424856083054e-03  -2.4712700451484230e-03  -1.8950121411732827e-03  -8.5522432711917389e-05  -2.7570626767747921e-04  -1.1071638158348352e-02  -1.1071600316726849e-02  -3.2155785391403242e-03  -6.6088270566537044e-04  -3.7198160274792759e-04  -2.1741513232477290e-03  -9.8106701815736533e-04  -1.3675604067436231e-02  -9.9141056925493479e-02  -5.8869112571586614e-03  -2.6935485414122684e-03  -4.3772991330694126e-03  -6.4961359286626525e-04  -3.0703067943161390e-03  -4.9938765214518693e-04  -1.0286844104119650e-03  -7.4573146581748638e-04  -4.1177845497833052e-04  -3.6217685158209929e-04  -1.0530714429183161e-02  -4.7768229457719876e-03  -1.4093331390181046e-03  -1.8274083025120072e-03  -2.6802767407651737e-03  -3.2042600919549337e-03  -1.4626755789054566e-02  -1.7221081282818990e-02  -2.0898555917773079e-02  -1.3323385319536968e-02  -2.5167900953171122e-02  -5.0679727891035870e-04  -2.1314795435852800e-03  -3.2395686535268866e-03  -1.3998535104725795e-03  -2.5632666227473262e-03  -5.5662174060868942e-03  -3.8990718637574519e-03  -5.6404134160369047e-04  -1.5957476358701778e-04  -3.0406924143672486e-03  -1.3349113205699059e-01  -1.1881049602766677e-01  -1.6984203325961017e-03  -3.7656174443201846e-03  -9.1847733280161256e-04  -7.8712480749071952e-04  -8.4474962241293998e-04  -1.8969079059861176e-04  -2.6332897728220499e-04  -1.8919161371306738e-04  -3.7846033001910596e-03  -8.2348832469333749e-03  -4.7972999681487466e-03  -4.5407987774206307e-02  -4.2686047837323771e-02  -2.8593888112980654e-02  -8.3067431320367618e-03  -1.7427580887105106e-03  -1.2482917743475231e-03  -1.6716303656222259e-02  -2.1146277360922974e-03  -2.1732757919533628e-03  -9.2785172776133559e-03  -8.8553331496694070e-03  -9.2784330126131909e-03  -8.9525118715625494e-03  -5.2914849028262007e-04  -3.3531305448582000e-04  -2.6891716238730289e-03  -2.3128496780571465e-03  -5.6937871348491396e-02  -1.2346791220739142e-03  -1.4988460587833236e-03  -1.8064213760913533e-03  -1.8057099658425118e-03  -3.7665309663078828e-03  -1.3539804673397334e-03  -1.5586410584538407e-03  -5.8089362611206275e-03  -7.9194698782728814e-04  -7.7530828783463736e-04  -8.5141749197439691e-04  0.0000000000000000e+00  -7.6126469398978924e-05  -3.2936620300490979e-02  -6.1297819357477245e-05  -1.3444385703914452e-01  -1.2812732616441689e-03  -1.2906546537229727e-03  -4.0684667958134704e-03  -6.5818582502457515e-03  -6.1403543700218801e-03  -8.0369636590010216e-03  -7.6198505665957044e-03  -1.7397835280556799e-03  0.0000000000000000e+00  -1.5802630063392442e-01  -6.2758084997664434e-03  -5.5284876136254033e-02  -7.1839271257256709e-03  -6.6552596962610368e-03  -2.5211953336333423e-03  -3.6081661699587847e-02  -9.6340150710606939e-04  -1.5653401434370102e-03  -5.4262016179617287e-04  -4.6220694710287632e-03  -5.0865106944551416e-03  0.0000000000000000e+00  -6.6052845554634513e-05  -1.3160805820213350e-01  -1.5802674675592857e-01  -6.0423304970977764e-03  -6.1023814059008351e-03  -1.1499999471877298e-03  -1.1978469671424495e-03  -1.9242140196375060e-02  -6.1523999706883121e-04  -2.3447568614439543e-02  -1.0988839129152236e-03  -1.5052145344904293e-03  -1.5415473256786317e-03  -1.7061928736374853e-03  -7.1480076915968855e-04  -8.4441113004593007e-04  -1.6685211843899456e-02  -2.3084538237091450e-03  -2.8393428204530535e-03  -2.0869350758899383e-03  -2.1562925183671419e-03  -2.5900929415271194e-04  -1.1672899494962030e-03  -3.9540025590664102e-03  -5.2886519502214221e-02  -1.5401914178594556e-04  -1.0377638240652616e-02  -1.9811538512025429e-02  -2.0852344261802565e-03  -4.3877335135564081e-04  -1.9027484584345656e-02  -9.9135581292283687e-03  -9.9138828797408710e-03  -4.6751174663849191e-04  -5.5579322957302699e-04  -4.3656462361835414e-03  -5.3924256361357033e-03  -5.2462878348657266e-03  -1.7652165244625964e-03  -6.6341328143940687e-03  -4.3833201052137635e-04  -1.1499443065254601e-03  -1.1202384014647854e-03  -4.1480996598710134e-03  -3.9313421831312523e-03  -2.0932594944572124e-02  -6.7607981054639884e-03  -1.2890144399920945e-04  -1.2070316097825069e-02  -1.2129704004157145e-02  -7.0435653650198059e-04  -6.1843770057444134e-04  -2.0062349328993884e-02  -1.1971165561613128e-02  -1.5588539260860436e-02  -1.2399143197689817e-02  -3.4356914029081854e-03  -3.5292976743566398e-03  -6.3709361264849143e-04  -7.2259054821998282e-03  -5.3129649035692601e-03  -3.3602469408671620e-02  -6.4365557326315923e-02  -1.5462029027573786e-04  -1.0744704737416339e-02  -1.2509405551717685e-02  -2.9125167645505351e-02  -1.8038657556222561e-04  0.0000000000000000e+00  -6.4114977885005586e-05  -3.5734315189949024e-03  -2.3861811070565470e-03  -3.4359111991952083e-03  -7.1606706317049245e-03  -4.5135984762771060e-03  -2.1229996780494156e-03  -3.3883648406886542e-04  -4.5214528782861032e-03  -4.5213632268741345e-03  -1.0546242413361632e-02  -3.2692443656713691e-04  -1.7701804800951703e-03  -1.8992899113852400e-03  -3.1241472868656986e-03  -1.2879607407167384e-01  -3.0231616838751741e-02  -5.2059127814858318e-03  -1.5907565296442348e-02  -1.2271653330459643e-02  -1.5402532112388420e-02  -1.5802572165265324e-01  -1.3122445656239007e-01  -6.0423280757726135e-03  -5.3714026905109053e-03  -6.2611655338128278e-02  -1.2275159596619475e-02  -2.5650122468763570e-04  -2.0752233913418558e-03  -1.9909825446798837e-03  -9.7387430687156495e-04  -8.3141668256665865e-04  -8.6719947887705588e-04  -6.8498918253572794e-02  -5.0091883537332783e-03  -7.7789727882313434e-03  -8.4555334325296105e-03  -3.8478596193382499e-03  -3.1920525046719699e-03  -2.2906482280653871e-03  -2.0726482894947173e-04  -1.4120748023127828e-02  -5.5774319152096981e-05  -1.3358881090213674e-03  -1.5802485484208181e-01  -1.0034276589418929e-02  -3.0673204245341497e-03  -7.3234454705489011e-04  -3.6659605091443891e-04  -1.0099515607388005e-03  -1.5487925515895017e-02  -1.4841532279281332e-03  -2.4373836045379712e-04  -3.0043579586977844e-04  -7.6241610726974097e-03  -2.1250780298520039e-02  -1.7464465847246598e-02  -9.6287991389634926e-04  -1.1926568681710871e-04  -3.1108113046335335e-03  -1.3322444516526671e-01  -6.0320976030737675e-05  -8.4235478896428802e-03  -2.1100742107974121e-02  -2.3450082391207046e-02  -1.4700939779779612e-03  -5.8424260146538698e-05  -1.5802427041700154e-01  -2.5569649727707104e-03  -8.0842297937928594e-04  -6.7103386002126148e-04  -6.8675185389182691e-04  -1.7332457865884025e-03  -1.0585004635130604e-03  -2.0263530333331772e-03  -1.9589404147062829e-03  -5.1385447393670972e-03  -5.0558216494351715e-05  -8.9339863014125873e-02  -1.3665982717898964e-01  -3.9509306429290429e-04  -1.2612726681752928e-03  -4.3261877538553935e-02  -2.3771027472121150e-03  -6.8006322975290960e-03  -2.2384204332275733e-02  -3.7408017416974775e-03  -2.3441458232209734e-04  -4.2121437455916080e-02  -4.0869018303430295e-02  -7.8314723384811227e-02  -2.8364952668628936e-02  -5.5186350170081899e-05  -1.0041738097110876e-02  -1.0038885909090505e-02  -4.4210992450988357e-03  -2.5643958806235460e-03  -1.0164518540411703e-03  -4.0858940834576242e-04  -1.3866220705477865e-03  -1.2285408853407592e-03  -1.4904667499284917e-02  -3.4335888479322969e-03  -3.0074673544151064e-03  -3.0639426758344314e-03  -1.5800097542994297e-04  -5.7130291471836538e-04  -5.5731063866925289e-04  -1.5998576402524636e-03  -1.3950929762279640e-04  -1.0241771765155312e-03  -1.3809637292033680e-01  -5.2613934167348032e-04  -6.2497154797311293e-03  -1.0613072868851601e-02  -1.2066178088616247e-03  -1.4456469325304809e-03  -5.9208753902587465e-04  -3.2860560865777435e-03  -1.5200303867151392e-02  -3.0056092761169208e-03  -1.5802676867845650e-01  0.0000000000000000e+00  -1.5802408632879428e-01  -1.5802394704599859e-01  0.0000000000000000e+00  0.0000000000000000e+00  0.0000000000000000e+00  -1.0262751592844434e-03  -9.5091328345856471e-03  -7.9957635019578047e-03  -4.6549502254138251e-04  -2.6676083275130585e-03  -3.2777576099045743e-04  -3.7551887196370602e-04  -1.9537442208593216e-03  -7.4730340199156489e-03  -9.7327757207541833e-04  -1.0560996663674213e-03  -2.1838867628316996e-03  -2.2552377063168370e-04  -9.4926637832373176e-04  -9.4637747097002969e-02  -5.8913108625903399e-04  -7.9248330758163840e-04  -1.2312227954472071e-03  -3.4848895084847635e-03  -7.1607556525388096e-04  -1.1375564578189593e-01  -6.3248901117184689e-02  -6.2019967332711231e-03  -2.4694673072084132e-03  -9.6689965510980756e-04  -3.4022892120176118e-04  -2.7484111192716676e-04  -2.8460071302351723e-03  -2.9046306038240004e-03  -6.0243475813073150e-03  -1.4073866655222630e-03  -1.9848027666422084e-03  -2.8398339855841949e-03  -2.7706651577006154e-03  -5.2618042791746219e-03  -6.4857890007764532e-03  -1.9556756083242226e-03  -2.4384685887822638e-02  -3.7575542979218658e-03  -6.1621400102673338e-03  -1.9459060645087838e-02  -2.6853325412496059e-02  -2.2425238407304364e-04  -1.2950531574440183e-03  -9.2478899187416648e-03  -1.1645287675744452e-02  -1.0307188778480577e-02  -1.0252273643310885e-02  -7.8167349657687292e-04  -3.7543634901084283e-02  -1.6842327964259265e-04  -4.4628837133641438e-03  -4.2598536004922671e-03  -5.6415337225170538e-03  -3.0297028362454095e-02  -4.6497588239602494e-03  -1.6255464396894572e-03  -1.6728402249505409e-03  -1.8779461738545041e-03  -2.6388339744480484e-03  -8.0155583295275640e-03  -9.0531297321905517e-04  -2.6345991457394193e-03  -1.3076214482573803e-02  -5.2434080957979826e-04  -5.9356320117387353e-04  -2.5188837587064609e-03  -5.9648844681466848e-03  -4.2028514959719863e-05  -4.2038656301820730e-05  -1.4080637681792765e-01  -1.1165080852891041e-03  -1.2237049353775984e-03  -4.5693871075700327e-04  -6.3277134128017292e-04  -6.3515778400160833e-04  -7.2591669390626480e-03  -9.8456233289059159e-03  -1.2035781535618998e-02  -9.1272093993112497e-03  -2.5693381737260201e-03  -4.8436849627807944e-04  -3.6780333813886158e-03  -2.1189317471037898e-04  -5.5338693093031112e-02  -5.4527739286245043e-05  -1.3926022668898320e-04  -1.9388676849834433e-04  -2.9257604335454400e-02  -1.5232242136336437e-03  -1.3292115841964493e-03  -1.3555257853855214e-03  -8.7337045280401167e-04  -1.0329833716926345e-03  -3.0281547662181488e-04  -1.3877043017399754e-02  -4.5576066702865522e-04  -2.1839616668342023e-03  -1.8918754239668864e-02  -2.4751838535928589e-04  -3.9326077907946479e-03  -3.4870741122728817e-03  -3.6461499010862911e-03  -1.3852574645491105e-03  -1.1880219675339128e-02  -3.9475078723448921e-04  -3.0392225851295885e-04  -2.8902212804355139e-03  -5.9496129010337739e-02  -3.6557108754744924e-02  -7.7677355389638705e-03  -7.5539322140640529e-04  -4.0336762389070451e-03  -2.4826445735801187e-03  -3.3078487349824811e-03  -2.3392535586137728e-03  -2.3798168909908087e-04  -8.9698963571812739e-04  -2.1625241924494638e-03  -4.4924982179180110e-03  -4.2871232034376421e-03  -3.8741148865896360e-03  -6.8424590082463992e-04  -1.3914237985324129e-02  -1.6315964971696195e-02  -1.2619033507653679e-04  -9.6591707344009653e-03  -4.7112651367557293e-04  -3.2786922637776531e-03  -2.6684859565419407e-03  -6.2907942467336254e-03  -2.7944234107737894e-03  -1.9099069835320942e-03  -1.0519842044471912e-02  -2.0357038388757517e-03  -1.6130661594629730e-03  -4.7039700324398824e-03  -8.6142733184072678e-04  -4.3415687853643619e-04  -4.0977232446016299e-03  -8.5201155249909431e-03  -7.7139511060470636e-02  -9.8676120984581603e-02  -6.1041755236429518e-02  -2.8637645368711244e-03  -7.6562024382288393e-04  -2.4437355284356271e-03  -3.8447824072552410e-03  -1.1049511441294971e-02  -3.4481477158894891e-03  -2.8166708415053015e-02  -2.2028766054478254e-03  -3.3684196777067537e-03  -7.5325230051475874e-03  -1.5195867706746065e-02  -2.6730828531948879e-02  -2.2343193544693642e-02  -1.3703409725055318e-01  -5.3454204659061629e-04  -1.4268474479073617e-01  -8.1070309468861221e-02  -3.6153612396793154e-04  -2.5246952567743897e-02  -3.2516143409842948e-04  -1.2019315278129822e-03  -3.5516991601078720e-04  -5.4268643988955069e-03  -3.3745807876718657e-04  -8.2765222328912917e-04  -1.0854150134917538e-04  -3.3829162367895363e-02  -8.3164678364063150e-03  -8.9780894112135212e-05  -5.5094166036510266e-04  -3.7575626984345128e-03  -8.5205631958735449e-03  -7.2614882733987556e-04  -7.0040005843973591e-04  -7.8061815912777309e-04  -1.2182866229258007e-02  -2.6386615456795949e-03  -4.3461990800297143e-05  -7.1222526199703337e-03  -7.8608486690054848e-03  -6.0192677548982689e-03  -5.6218690246279714e-03  -4.2212251318353732e-02  -2.3347063514855934e-03  -1.6386558287005885e-03  -1.5420453371846154e-03  -5.2494256974350804e-04  -1.4369057283336809e-03  -3.1944907191639157e-02  -6.5730794643453997e-03  -1.9353665580983366e-03  -1.7704414746243468e-03  -4.9695224929020409e-04  -2.2554936937319267e-04  -1.0354749668150166e-04  -1.7388212401537071e-02  -2.9529085440426004e-04  -2.3776224696724678e-03  -8.7290716976462148e-03  -9.1292535767194651e-04  -2.0432109249494050e-03  -4.5061868059126622e-05  -9.2302142583167990e-02  -1.3971517850802503e-01  -1.1071826379250090e-04  -1.5725307293131661e-04  -2.0900609458104357e-04  -8.5156682329737624e-04  -9.5191223855768434e-02  -2.4571303242327930e-03  -6.6900791046800904e-04  -7.1066757448788312e-03  -2.9777332588474775e-03  -8.1690650373557244e-02  -7.0734548567896452e-03  -3.8241791944004674e-04  -1.3855636740086989e-04  -1.0393876076055113e-04  -2.9003954075200690e-03  -2.8023416357079649e-03  -1.3364727285974658e-03  -2.7262481615823418e-03  -2.0210212014548559e-02  -2.3540918062747478e-02  -9.6916159666610262e-03  -3.5688702111046712e-05  -1.9526829342315793e-02  -3.0097404375246093e-03  -3.9449015471401967e-03  -4.2036975791674832e-03  -4.4972673651264301e-03  -5.6127135158035751e-04  -1.0185112388331958e-03  -3.3022733452705696e-03  -1.4220624282871650e-03  -3.2023792184694513e-03  -1.4084669088704624e-01  -6.6009963647823532e-03  -9.