<?xml version="1.0"?>
<VTKFile type="UnstructuredGrid"  version="0.1"  >
<UnstructuredGrid>
<Piece  NumberOfPoints="772" NumberOfCells="1276">
<Points>
<DataArray  type="Float64"  NumberOfComponents="3"  format="ascii">0.0001 1.570796326794897 0  0.0001 0 0  30 0 0  30 1.570796326794897 0  15.00005 0 0  15.00005 1.570796326794897 0  7.500075 0 0  7.500075 1.570796326794897 0  22.500025 1.570796326794897 0  22.500025 0 0  18.7500375 0 0  18.7500375 1.570796326794897 0  11.2500625 1.570796326794897 0  11.2500625 0 0  3.7500875 0 0  3.7500875 1.570796326794897 0  26.2500125 1.570796326794897 0  26.2500125 0 0  16.87504375 1.570796326794897 0  16.87504375 0 0  9.375068750000001 0 0  9.375068750000001 1.570796326794897 0  5.62508125 1.570796326794897 0  5.62508125 0 0  1.87509375 0 0  1.87509375 1.570796326794897 0  13.12505625 1.570796326794897 0  13.12505625 0 0  20.62503125 1.570796326794897 0  20.62503125 0 0  24.37501875 0 0  24.37501875 1.570796326794897 0  28.12500625 0 0  28.12500625 1.570796326794897 0  23.437521875 0 0  23.437521875 1.570796326794897 0  21.562528125 1.570796326794897 0  21.562528125 0 0  17.812540625 1.570796326794897 0  17.812540625 0 0  29.062503125 1.570796326794897 0  29.062503125 0 0  8.437571875 0 0  8.437571875 1.570796326794897 0  0.937596875 0 0  0.937596875 1.570796326794897 0  4.687584375 0 0  4.687584375 1.570796326794897 0  2.812590625 1.570796326794897 0  2.812590625 0 0  6.562578125 0 0  6.562578125 1.570796326794897 0  10.312565625 1.570796326794897 0  10.312565625 0 0  12.187559375 0 0  12.187559375 1.570796326794897 0  14.062553125 1.570796326794897 0  14.062553125 0 0  15.937546875 0 0  15.937546875 1.570796326794897 0  27.187509375 0 0  27.187509375 1.570796326794897 0  25.312515625 1.570796326794897 0  25.312515625 0 0  19.687534375 0 0  19.687534375 1.570796326794897 0  12.6563078125 0.7853981633974484 0  8.9063203125 0.7853981633974484 0  16.4062953125 0.7853981633974484 0  17.3437921875 0.7853981633974482 0  18.2812890625 0.7853981633974484 0  23.9062703125 0.7853981633974484 0  22.9687734375 0.7853981633974482 0  20.1562828125 0.7853981633974484 0  21.0937796875 0.7853981633974482 0  22.0312765625 0.7853981633974484 0  27.6562578125 0.7853981633974484 0  28.5937546875 0.7853981633974482 0  30 0.7853981633974483 0  9.843817187500001 0.7853981633974482 0  13.5938046875 0.7853981633974482 0  24.8437671875 0.7853981633974482 0  4.2188359375 0.7853981633974483 0  1.4063453125 0.7853981633974483 0  0.0001 0.7853981633974483 0  2.3438421875 0.7853981633974483 0  3.2813390625 0.7853981633974482 0  5.156332812500001 0.7853981633974483 0  7.968823437499999 0.7853981633974484 0  6.0938296875 0.7853981633974483 0  7.0313265625 0.7853981633974483 0  15.4687984375 0.7853981633974482 0  14.5313015625 0.7853981633974484 0  11.7188109375 0.7853981633974482 0  10.7813140625 0.7853981633974484 0  19.2187859375 0.7853981633974483 0  26.7187609375 0.7853981633974483 0  25.7812640625 0.7853981633974483 0  29.29687734375 0.8983345617863304 0  0.70322265625 0.898334561786331 0  0.4688484375 0 0  29.5312515625 0 0  0.4688484375 1.570796326794897 0  29.5312515625 1.570796326794897 0  30 1.178097245096172 0  24.37501875 1.038215903441252 0  24.35244533187101 0.5191079517206258 0  23.9062703125 0 0  25.312515625 0.5325804233536451 0  25.28994220687101 1.051688375074271 0  24.8437671875 1.570796326794897 0  13.12505625 1.038215903441252 0  13.10248283187101 0.5191079517206258 0  12.6563078125 0 0  13.5938046875 1.570796326794897 0  9.375068750000001 1.038215903441252 0  9.352495331871012 0.5191079517206258 0  8.9063203125 0 0  9.843817187500001 1.570796326794897 0  28.12500625 1.038215903441252 0  28.10243283187101 0.5191079517206258 0  27.6562578125 0 0  28.5937546875 1.570796326794897 0  27.187509375 0.5325804233536451 0  27.16493595687101 1.051688375074271 0  26.7187609375 1.570796326794897 0  28.5937546875 0 0  27.6562578125 1.570796326794897 0  20.62503125 1.038215903441252 0  20.60245783187101 0.5191079517206258 0  20.1562828125 0 0  21.562528125 0.5325804233536451 0  21.53995470687101 1.051688375074271 0  21.0937796875 1.570796326794897 0  22.0312765625 0 0  19.687534375 0.5325804233536451 0  19.66496095687101 1.051688375074271 0  19.2187859375 1.570796326794897 0  21.0937796875 0 0  20.1562828125 1.570796326794897 0  22.9687734375 1.570796326794897 0  23.437521875 1.038215903441251 0  23.41494845687101 0.5191079517206257 0  22.9687734375 0 0  22.500025 0.532580423353645 0  22.52259841812899 1.051688375074271 0  22.0312765625 1.570796326794897 0  24.8437671875 0 0  23.9062703125 1.570796326794897 0  17.812540625 1.038215903441252 0  17.78996720687101 0.5191079517206258 0  17.3437921875 0 0  18.2812890625 1.570796326794897 0  16.87504375 1.038215903441252 0  16.85247033187101 0.5191079517206258 0  16.4062953125 0 0  18.2812890625 0 0  17.3437921875 1.570796326794897 0  16.4062953125 1.570796326794897 0  8.437571875 0.5325804233536451 0  8.414998456871011 1.051688375074271 0  7.968823437499999 1.570796326794897 0  9.843817187500001 0 0  8.9063203125 1.570796326794897 0  13.5938046875 0 0  12.6563078125 1.570796326794897 0  4.687584375 1.038215903441251 0  4.665010956871011 0.5191079517206257 0  4.2188359375 0 0  6.562578125 1.038215903441251 0  6.540004706871011 0.5191079517206257 0  6.0938296875 0 0  15.00005 0.532580423353645 0  14.97747658187101 1.051688375074271 0  14.5313015625 1.570796326794897 0  11.2500625 0.532580423353645 0  11.22748908187101 1.051688375074271 0  10.7813140625 1.570796326794897 0  4.2188359375 1.570796326794897 0  1.4063453125 0 0  1.4063453125 1.570796326794897 0  7.0313265625 1.570796326794897 0  7.0313265625 0 0  6.0938296875 1.570796326794897 0  7.968823437499999 0 0  5.156332812500001 0 0  5.156332812500001 1.570796326794897 0  3.2813390625 1.570796326794897 0  3.7500875 1.038215903441252 0  3.727514081871012 0.519107951720626 0  3.2813390625 0 0  2.812590625 1.038215903441252 0  2.790017206871012 0.5191079517206258 0  2.3438421875 0 0  1.87509375 1.038215903441252 0  1.852520331871012 0.5191079517206258 0  2.3438421875 1.570796326794897 0  10.7813140625 0 0  10.312565625 0.5325804233536446 0  10.33513904312899 1.05168837507427 0  11.7188109375 0 0  11.7188109375 1.570796326794897 0  12.187559375 1.038215903441252 0  12.16498595687101 0.5191079517206261 0  14.5313015625 0 0  14.062553125 0.5325804233536446 0  14.08512654312899 1.05168837507427 0  15.4687984375 0 0  15.4687984375 1.570796326794897 0  15.937546875 1.038215903441252 0  15.91497345687101 0.5191079517206261 0  7.500075 1.038215903441252 0  7.477501581871013 0.5191079517206261 0  5.62508125 0.5325804233536444 0  5.647654668128987 1.05168837507427 0  25.7812640625 0 0  25.7812640625 1.570796326794897 0  26.7187609375 0 0  18.7500375 1.038215903441253 0  18.72746408187101 0.5191079517206263 0  19.2187859375 0 0  26.2500125 1.038215903441253 0  26.22743908187102 0.5191079517206267 0  0.4072447431321764 0.4958135491426953 0  0.8735311842188216 0.4630265839985266 0  29.00089943063218 0.4958135491426955 0  29.59285525686782 0.4958135491426947 0  28.82812890625 1.178097245096172 0  1.17197109375 1.178097245096172 0  0.0001 1.178097245096172 0  8.81556873678424 0.3926990816987242 0  17.25304061178424 1.178097245096172 0  22.12202813821576 0.3926990816987242 0  23.8012843462846 0.3926990816987242 0  20.06553123678424 0.3926990816987242 0  21.16195784508677 1.178097245096172 0  27.56550623678424 0.3926990816987242 0  9.75306561178424 1.178097245096172 0  13.50305311178424 1.178097245096172 0  24.91194534508677 1.178097245096172 0  12.72448597008677 0.3926990816987242 0  22.90059527991323 1.178097245096172 0  16.47447347008677 0.3926990816987242 0  18.1763030962846 0.3926990816987242 0  8.05957501321576 0.3926990816987241 0  3.19058748678424 1.178097245096172 0  10.87206563821576 0.3926990816987244 0  11.6138249712846 1.178097245096172 0  14.62205313821576 0.3926990816987244 0  15.3638124712846 1.178097245096172 0  0.0001 0.3926990816987241 0  25.87201563821576 1.178097245096173 0  25.69051248678424 0.3926990816987245 0  5.24708438821576 0.3926990816987241 0  7.099504720086773 0.3926990816987241 0  7.12207813821576 1.178097245096172 0  2.2388562212846 0.3926990816987241 0  1.474523470086772 0.3926990816987241 0  19.12803436178424 1.178097245096173 0  26.62800936178424 1.178097245096173 0  4.1138499712846 0.3926990816987241 0  4.12808436178424 1.178097245096172 0  6.00307811178424 0.3926990816987242 0  6.025651529913227 1.178097245096172 0  5.06558123678424 1.178097245096172 0  2.43459376321576 1.178097245096172 0  26.80951251321576 0.3926990816987246 0  19.30953751321576 0.3926990816987246 0  30 0.3926990816987241 0  28.62100159030748 0.3926990816987241 0  18.37204063821576 1.178097245096172 0  15.37804686178424 0.3926990816987243 0  13.68455626321576 0.3926990816987241 0  11.62805936178424 0.3926990816987243 0  9.934568763215761 0.3926990816987241 0  3.1763530962846 0.3926990816987241 0  10.71313590491323 1.178097245096173 0  14.46312340491323 1.178097245096173 0  12.56555623678424 1.178097245096172 0  8.997071888215761 1.178097245096172 0  7.87807186178424 1.178097245096172 0  16.31554373678424 1.178097245096172 0  17.2388062212846 0.3926990816987241 0  23.99702188821576 1.178097245096172 0  22.87802186178424 0.3926990816987241 0  20.24703438821576 1.178097245096172 0  27.74700938821576 1.178097245096172 0  21.18453126321576 0.392699081698724 0  21.9262905962846 1.178097245096172 0  24.93451876321576 0.392699081698724 0  0.3291934204450424 0.9817477042468103 0  29.67090657955496 0.9817477042468103 0  29.29687734375 0.2808542915315053 0  1.546011527721087 1.221149260967534 0  28.45408847227891 1.221149260967535 0  22.2633395751707 1.298372286280418 0  29.179690234375 1.234565444290613 0  0.820409765625 1.234565444290614 0  1.045021943039761 0.7810895666963746 0  15.70317265625 1.304506115118074 0  11.95318515625 1.304506115118074 0  28.94734709363929 0.8452694778121677 0  26.00541830123088 0.258637118680
[...]
<PointData  Scalars="f_18-0"> 
<DataArray  type="Float64"  Name="f_18-0"  format="ascii">-5.3529359161126100e-01  -5.3529360311999763e-01  0.0000000000000000e+00  0.0000000000000000e+00  -4.0685543139777888e-02  -4.0696847785387145e-02  -1.2742869276383595e-01  -1.2745632083963304e-01  -1.3388159106043988e-02  -1.3386572064471990e-02  -2.4228845449772125e-02  -2.4222090885442839e-02  -6.8768689626238069e-02  -6.8750687360998194e-02  -3.1181074729797115e-01  -3.1180134680257310e-01  -5.7168007393971132e-03  -5.7194056970181553e-03  -3.1513908376949104e-02  -3.1507276933597166e-02  -9.1864441423197038e-02  -9.1822727755429226e-02  -1.8967697728587779e-01  -1.8976427653299546e-01  -4.6134543237103320e-01  -4.6134420595909453e-01  -5.2629604588900848e-02  -5.2624695400899639e-02  -1.8299493315382533e-02  -1.8300944571000559e-02  -9.2529537592709443e-03  -9.2517578122567074e-03  -2.6648980144609894e-03  -2.6647567115684508e-03  -1.1233016696461299e-02  -1.1239187145985253e-02  -1.5733121669352524e-02  -1.5730831457929636e-02  -2.7679055556509465e-02  -2.7667302415324065e-02  -1.2894885245243238e-03  -1.2875856896809243e-03  -1.0749223187864075e-01  -1.0746146122355782e-01  -5.1371742018596001e-01  -5.1371392788096426e-01  -2.4236339189581788e-01  -2.4202330774678696e-01  -3.8913411847488483e-01  -3.8913531977668447e-01  -1.5387071903732366e-01  -1.5383871113841543e-01  -7.9180282612295427e-02  -7.9164531816027603e-02  -6.0064508561233590e-02  -6.0045351178741893e-02  -4.6248063775915289e-02  -4.6238958188738792e-02  -3.5829732783462791e-02  -3.5824539193858224e-02  -4.1369741622757457e-03  -4.1372994109505441e-03  -7.4172042127061645e-03  -7.4159493137548995e-03  -2.1114176034156665e-02  -2.1116214919595547e-02  -5.6162271715019293e-02  -9.9184796617196466e-02  -3.3568540356603414e-02  -2.9503905411583906e-02  -2.5872526430257455e-02  -1.0205797476476096e-02  -1.2267932223735914e-02  -1.9647947394631767e-02  -1.6960752535128854e-02  -1.4511543463766189e-02  -3.3819618027628429e-03  -1.9618782664066890e-03  0.0000000000000000e+00  -8.5145648142288005e-02  -4.9292163501972318e-02  -8.3003069311426911e-03  -2.7527841507970385e-01  -4.9101349416818962e-01  -5.3529359431061663e-01  -4.2680095058646406e-01  -3.5017796546267271e-01  -2.1315910332199439e-01  -1.1676306535337470e-01  -1.6990411626989055e-01  -1.3949070806265687e-01  -3.8148157194303332e-02  -4.3349048941060779e-02  -6.4188596159324346e-02  -7.3708994856611948e-02  -2.2602051416963781e-02  -4.9036153693702940e-03  -6.5387436037622438e-03  -9.5633253542188657e-04  -5.2212311645575971e-01  -5.2815906722779027e-01  -6.3431975210027490e-04  -5.2800388117814734e-01  -6.3466755953810617e-04  0.0000000000000000e+00  -9.2336298233590651e-03  -9.2789043380053261e-03  -1.0221789127725060e-02  -7.4028915417636539e-03  -7.4462597164754712e-03  -8.3168982514824769e-03  -5.2572913934421289e-02  -5.2741668108521128e-02  -5.6186540089967693e-02  -4.9324342812689298e-02  -9.1700588790948431e-02  -9.2046846752368114e-02  -9.9190880498550821e-02  -8.5180763874554075e-02  -2.6579862788143906e-03  -2.6920071763430579e-03  -3.3870484862144968e-03  -1.9665837257187638e-03  -4.1277627748024523e-03  -4.1649118913809719e-03  -4.9131842755648645e-03  -1.9646553544058623e-03  -3.3884365515475016e-03  -1.8271801257342683e-02  -1.8336126723757316e-02  -1.9669928882827176e-02  -1.5710245952673882e-02  -1.5769946017236254e-02  -1.6987150674388694e-02  -1.4533197168574831e-02  -2.1085232902318445e-02  -2.1156800034371065e-02  -2.2630987321079495e-02  -1.6984132613714266e-02  -1.9674597803621137e-02  -1.2289609854839213e-02  -1.1215213838106568e-02  -1.1263936256959935e-02  -1.2286660465728594e-02  -1.3365749225656665e-02  -1.3313876773484666e-02  -1.4535092373469833e-02  -8.3153033573131405e-03  -1.0224046226706951e-02  -2.7632590721428287e-02  -2.7719206489665815e-02  -2.9534138745384922e-02  -2.5900856612770692e-02  -3.1473098001660808e-02  -3.1570501409023059e-02  -3.3599680947340026e-02  -2.5899638071850740e-02  -2.9539676412292670e-02  -3.3606319846410194e-02  -1.0734513238515328e-01  -1.0775390909020235e-01  -1.1680281750101350e-01  -8.5167731785291551e-02  -9.9188991660913023e-02  -4.9317284127756149e-02  -5.6195520994513477e-02  -2.4176877911481273e-01  -2.4328177281841429e-01  -2.7535464930997777e-01  -1.5340896270177737e-01  -1.5413788309756005e-01  -1.7018343768464173e-01  -4.0654088393970923e-02  -4.0777017736256770e-02  -4.3379662733062520e-02  -6.8707273058016022e-02  -6.8924447385311810e-02  -7.3735434957745122e-02  -2.7535008841196984e-01  -4.9086453409176273e-01  -4.9092289684625318e-01  -1.3961558160259524e-01  -1.3960475324138005e-01  -1.7011988357439972e-01  -1.1682652793510842e-01  -2.1324057179814473e-01  -2.1329211058776576e-01  -3.5023131401418195e-01  -3.1167345148292891e-01  -3.1352871334628341e-01  -3.5023333571511361e-01  -3.8910171010452549e-01  -3.9096696685493076e-01  -4.2681849290412893e-01  -4.6148911319904834e-01  -4.6304029588216167e-01  -4.2677352292480791e-01  -7.3721666637693556e-02  -7.9090019693870653e-02  -7.8810491186328824e-02  -6.4212584738985862e-02  -6.4223294850317553e-02  -5.9984891566902357e-02  -6.0176790884966198e-02  -4.3370323550443401e-02  -4.6196440175301272e-02  -4.6054852421029704e-02  -3.8175768635276705e-02  -3.8183983425671177e-02  -3.5782662348240860e-02  -3.5890649727862135e-02  -1.2721732541959899e-01  -1.2777258669057082e-01  -1.8944095178623782e-01  -1.8842154786692653e-01  -6.5509581914234612e-03  -6.5512453713798624e-03  -4.9127630719553485e-03  -2.4191784863158074e-02  -2.4267593545144194e-02  -2.2628888167763910e-02  -5.7065510836760650e-03  -5.7444739337798962e-03  -5.2962270197061712e-01  -5.1642059419679009e-01  -1.3723835617193213e-03  -5.4798074005788801e-04  -1.6199598246352312e-03  -5.0331066933637902e-01  -5.3529359251763897e-01  -1.0060687044013246e-01  -2.9875844595621572e-02  -1.4288644100513788e-02  -1.0428261782898872e-02  -1.9921507066903307e-02  -1.6780248104014604e-02  -3.5236783356134903e-03  -8.6291782941248688e-02  -4.9891887252734378e-02  -8.1707149412550608e-03  -5.5602876797810508e-02  -1.2428723779461723e-02  -3.3254902044425549e-02  -2.6254185394474130e-02  -1.1475019430940255e-01  -3.5771317545625581e-01  -7.2658464444618140e-02  -6.5138898729671699e-02  -4.2799492019128756e-02  -3.8692040924023660e-02  -5.3529360365146039e-01  -6.3769124200514470e-03  -6.7037066641635248e-03  -2.0813787540238646e-01  -1.3748717126208734e-01  -1.3682207212199332e-01  -4.3493882305683051e-01  -4.8707247820678329e-01  -2.2904265786314736e-02  -5.0574454753580730e-03  -2.8309322297781025e-01  -2.8198646368140245e-01  -1.7336748518168307e-01  -1.7252286865635116e-01  -2.1819363986695095e-01  -4.1971298795694284e-01  -4.7507863640874337e-03  -2.2301499869857386e-02  0.0000000000000000e+00  -1.9198263653274546e-03  -2.5540302765390460e-02  -3.8617241221510015e-02  -4.8659946781843690e-02  -6.5010885238527646e-02  -8.3870962682156713e-02  -3.5890470232091609e-01  -7.4406158252427704e-02  -4.3737621455584762e-02  -5.6852713654122908e-02  -9.7572145530087737e-02  -1.1858738831943712e-01  -3.3985331362470714e-02  -2.9932911743492344e-02  -1.0015160678399445e-02  -1.2478805023948008e-02  -1.9376383027051851e-02  -3.2392532295417052e-03  -1.6717818013272680e-02  -1.4778826423352018e-02  -8.1253814218168133e-03  -5.3070985203547305e-01  -4.4149559681963671e-04  -9.5655860001612775e-04  -4.8290700901706457e-01  -2.1661882370209765e-03  -1.3945152630680789e-02  -1.1199308168976854e-03  -5.1823235682697011e-01  -5.0923109677005152e-01  -3.6953685782056551e-02  -6.2034798041788873e-02  -1.4498529604213763e-03  -6.1393741968677959e-03  -3.7003180219656914e-02  -6.2128652404564264e-02  -3.3076903499869453e-01  -2.5098599787010928e-02  -4.0829120418544479e-01  -1.1206630387750238e-01  -2.8562540584899852e-02  -1.8958655920613507e-02  -3.0179881272535810e-03  -9.5302888903065416e-02  -9.7194187418738840e-03  -1.6131696273127835e-01  -2.5801626036121766e-01  -1.1742080923203869e-02  -2.1876116975030956e-02  -4.5322016894243037e-03  -3.7635846096997715e-03  -2.0384869936664562e-02  -1.0718685961773873e-02  -1.0320413635408668e-01  -2.6763478416252193e-02  -4.7714927658184247e-02  -8.2007411911032169e-02  -1.5110740505984516e-02  -2.8564809181581788e-02  -5.4298921755627456e-02  -3.2497386690336479e-02  -8.8397493732678786e-02  -5.0942360168520502e-02  -8.7792617162619942e-03  -1.7633666349001171e-02  -4.4496649207310474e-01  -2.5798616551979059e-01  -3.3076945452533385e-01  -1.2191616509560135e-01  -1.4611781511576827e-01  -2.0028543833458723e-01  -2.2712748728693199e-01  -7.6314124088069507e-02  -4.4747137078348834e-02  -5.3136057827139500e-03  -2.3413034665321197e-02  -6.9826408491369136e-03  -1.6132648778591360e-01  -1.4670514680347915e-01  -1.1743469463896435e-02  -8.8020893259197971e-03  -1.7665091589734172e-02  -5.8188203940042607e-02  -3.4755195669879169e-02  -5.0343627014865544e-01  -7.1070636848900470e-02  -4.1949865009120901e-02  -2.3717127080969615e-03  -9.5899044601276834e-04  -5.2212211356146898e-01  -3.1545929131503002e-04  -3.9710036473277009e-04  -5.3202913508248662e-01  -5.3116768744315634e-01  -1.6233415887565565e-03  -5.0120895177328373e-01  -5.2441535597127409e-01  -5.7565781617391523e-02  -3.4390019300828349e-02  -1.4445906360056215e-01  -1.4913149584392858e-02  -1.5282038678939168e-02  -1.4438368563445331e-01  -2.6346283597699410e-01  -2.5407334079948457e-01  -4.4283629782169966e-02  -4.5118600354777688e-02  -7.5450463066413634e-02  -7.7051587801184915e-02  -3.3699942334606320e-01  -3.2603574091847104e-01  -4.8210201896859803e-02  -4.7347820631156147e-02  -8.2990971364486729e-02  -8.1337416845619306e-02  -2.8856878588593041e-02  -2.8328726562404018e-02  -4.4034605779805985e-01  -4.5232307025261476e-01  -4.7280082306397470e-01  -2.6521907496286180e-02  -2.7145392038830013e-02  -1.0581335235968332e-02  -1.0934898893436728e-02  -1.1592156801555670e-02  -5.4926901944586784e-02  -5.3909399651627159e-02  -3.2858040586156032e-02  -3.2248830514801839e-02  -6.2863388233429143e-02  -6.1485258468566208e-02  -3.7413553860822263e-02  -3.6626324787395387e-02  -6.9004534367000840e-03  -1.1999266236603413e-01  -1.2325687019126577e-01  -3.6930162406909146e-03  -2.0244698981906027e-02  -2.0485747016866598e-01  -1.9780599546805686e-01  -8.6019951121982779e-03  -8.8815037966823718e-03  -1.7384249773365675e-02  -1.7776006153996410e-02  -2.2190037881207977e-01  -2.3064680539838078e-01  -5.1623299935438351e-03  -5.4036483990353582e-03  -1.0246464342444404e-01  -8.7193064548949734e-02  -8.9235481348326720e-02  -5.0332807211299277e-02  -5.1339778910291602e-02  -2.3111522394738907e-02  -2.3591742153810592e-02  -1.5004880997140788e-01  -1.5945645502172781e-01  -3.4900359404780923e-02  -5.8462150903395592e-02  -9.8824710807980110e-03  -9.5577028649777938e-03  -4.1472230732899279e-01  -4.0205217950558253e-01  -1.4173891217198182e-02  -1.3772739832364437e-02  -3.2113909321921950e-02  -5.4373315065567217e-02  -1.3031909286442591e-02  -7.8629719418081383e-03  -1.6353455650123448e-02  -4.7687127692387093e-01  -1.8310596927552611e-01  -1.3082919595936013e-01  -4.5309454496847597e-02  -7.7378100922345996e-02  -4.6938983391402822e-01  -5.3453387334748331e-02  -7.6893094223721798e-03  -1.6109354565203134e-02  -2.5278335766560935e-02  -2.4683107493271118e-02  -6.7159110493280966e-02  -3.9796511344357723e-02  -3.0492180334875361e-02  -2.2599119870468950e-03  -3.7001555672973724e-01  -2.9344986825325015e-01  -1.1914982671109442e-02  -7.5717340802166201e-04  -5.2609517847073362e-01  -6.2542188332597405e-03  -5.9667408529715527e-03  -3.1289386837143967e-03  -2.9029242295218589e-03  -1.9165374932944092e-02  -1.8733599658929168e-02  -9.6467706575567150e-02  -9.4222307731918004e-02  -1.1341527705460078e-01  -1.1081616785170970e-01  -1.6392821933864429e-01  -4.6393854765431255e-03  -4.4151263354289573e-03  -2.2082220427658100e-02  -2.1645136742655016e-02  -6.2838486841812494e-02  -3.7397439639849102e-02  -2.8962784743925208e-02  -3.3921498858542359e-01  -2.6539556631966860e-01  -7.0444923511582000e-03  -3.9671975649552280e-03  -2.0774923525122797e-02  -1.0562405509271294e-01  -3.0243382908900390e-01  -4.5212485426656679e-03  -4.3215182226620579e-03  -2.1861545213008052e-02  -2.1465420808293886e-02  -6.9791989367193911e-03  -7.1896165179520860e-03  -6.7545300520534576e-02  -4.0022358568172330e-02  -4.2005245396547750e-02  -7.1179121182754990e-02  -3.0234128856215549e-03  -2.8373267100360723e-03  -1.8978701246074727e-02  -1.8616861908979626e-02  -9.7329669060009002e-03  -9.4778487421361777e-03  -3.5234129600144742e-02  -1.2200894446979650e-01  -5.9016882390651552e-02  -4.0823124746941764e-01  -3.7949625357174915e-01  -1.3011069292279617e-01  -1.1200720296231569e-01  -5.1745882548434589e-02  -9.5437375095887247e-02  -9.0004079134823112e-02  -3.8779249732071265e-03  -2.0606227476117501e-02  -1.3652841624810697e-02  -3.0987345140227558e-02  -1.0958645243541848e-01  -1.0449046001032487e-01  -1.8426135323959761e-01  -2.2696868056293218e-01  -2.3428449456101175e-01  -2.4609885787901069e-02  -7.8612412830906357e-03  -1.6022895514841096e-02  -8.0542263695425345e-02  -4.6952885129021578e-02  -2.0110780018513863e-01  -1.3000605427235041e-02  -5.5078654954821967e-03  -2.3416142077208140e-02  -6.1300958508416848e-03  -1.1851996374439648e-02  -3.0307439844538625e-01  -4.0072047592087517e-02  -6.7630660462073791e-02  -4.5073606845751590e-01  -3.8018779523596341e-01  -1.5387220376874136e-02  -2.7228192528641049e-02  -1.0984812408657771e-02  -3.0918832371262354e-02  -2.4954091833048093e-03  -3.0491255010891026e-02  -4.2066136653187751e-02  -7.1309127722211818e-02  -1.2773537420374067e-02  -7.8781922819298779e-03  -1.6371006798268334e-02  -3.6997584253098259e-01  -4.6597585844307510e-01  -2.9344348036063261e-01  -1.7858040536828360e-01  -1.3149363125768912e-01  -4.2313256913397698e-02  -7.1754952915313100e-02  -1.4535773205254254e-03  -5.3039689719978789e-01  -3.2992608500151724e-04  -8.6347052733916855e-03  -1.7332964694113075e-02  -1.6333977753701273e-01  -1.7797313659148781e-01  -1.2738021555690527e-02  -7.9081090148503466e-03  -1.6412633879782056e-02  -5.9447357571634938e-03  -2.3734187121396411e-02  -1.9647155467508420e-01  -1.2369117632096958e-01  -7.0081164407309909e-02  -4.1408275936143990e-02  -9.3983604651507860e-02  -4.0014411317729826e-01  -7.6600350790205999e-03  -5.1414934025972781e-01  -1.7060749123977820e-03  -5.3165572881616474e-01  -6.6551040717550774e-04  -5.2370751231799784e-01  0.0000000000000000e+00  -3.2147085220209353e-04  -9.5967118267386155e-04  -5.2205161876694051e-01  -1.0308832951735097e-01  -3.7488745845052269e-03  -2.0352473615200817e-02  -2.4246019537063707e-02  -4.7688620494721012e-01  -2.2199511115310673e-03  -7.5109433901675042e-03  -4.1154590689281373e-02  -6.9639154345198170e-02  -2.4736083073768726e-03  -1.8655969661163091e-01  -5.2784149044034290e-01  -1.0754933824735567e-01  -5.7222473902520865e-03  -2.1124646289776332e-02  -4.1460034783863554e-03  -1.5342184071302248e-01  -1.2832703046034731e-02  -1.6350029706791475e-02  -1.0325877861505257e-01  -3.0512184348923974e-02  -2.0386153997187746e-02  -3.7598165107348256e-03  -7.6398214426575461e-02  -4.4791019842448924e-02  -1.2833426991409203e-02  -2.3128000390167792e-03  -3.4698295295273456e-02  -5.8087753086622229e-02  -1.7638224579692136e-02  -8.7812697012313728e-03  -1.4646827526584771e-01  -1.6164177937447105e-01  -2.3418620324062077e-02  -5.3124478184663560e-03  -4.4788118710763047e-02  -7.6399696726663302e-02  -2.2715111032528776e-01  -1.4645385255633020e-01  -2.5835660296029994e-01  -1.7635028591371400e-02  -8.7796003366817626e-03  -5.0950512046311049e-02  -8.8429332418743456e-02  -3.2549826770620065e-02  -5.4389604686341082e-02  -1.5127573729379507e-02  -8.2130039025236606e-02  -4.7767812574486188e-02  -2.6778046007048462e-02  -1.0324347764810268e-01  -1.0726511620838201e-02  -2.0389533584533999e-02  -3.7606804036008721e-03  -1.1756175490769447e-02  -2.5836661929132132e-01  -1.6169551079581712e-01  -1.1758983632547137e-02  -9.7326141383383864e-03  -9.5427696550438701e-02  -3.0230782931101657e-03  -1.8977426101322976e-02  -2.8592049386443399e-02  -1.1203378180685410e-01  -2.8596770927200615e-02  -2.5053297003306794e-02  -6.2096283526686863e-02  -3.6984761721215911e-02  -6.1313799796286353e-03  -6.2105182139453659e-02  -3.6991939240740707e-02  -1.3957464888354816e-02  -9.5832111605615204e-04  -1.6248908367822352e-03  -3.1563115766750506e-04  -3.2539061264608447e-02  -3.4698168653627841e-02  -5.8080917132139392e-02  -5.0944800751319332e-02  -8.8407901427607155e-02  -1.3953276110881934e-02  -2.5049873568615804e-02  -8.2089591051674293e-02  -4.7749934562759389e-02  -5.3111230364021877e-03  -1.5127308807033205e-02  -2.6771275860885704e-02  -1.0722133606478368e-02  -3.0506588381338136e-02  -2.3121189311511255e-03  -5.0312913398300996e-01  -5.0325500011148683e-01  -5.3202914578876481e-01  -3.3090444233223004e-01  -4.4444370832470526e-01  -4.0817352571503546e-01  -3.3090921019219222e-01  -2.9324668418828148e-01  -3.6972541821221594e-01  -2.9325434611020568e-01  -4.4446332950557238e-01  -3.6972805933097236e-01  -1.7950358246502593e-01  -1.3331159025720526e-01  -2.0108367441292374e-01  -1.2200818086507741e-01  -1.7948706370601172e-01  -1.3331238428678913e-01  -3.9409243843683460e-02  -6.6429597330308052e-02  -4.2023287906695218e-02  -7.1214152767580405e-02  -3.9419300227386343e-02  -6.6444581981801046e-02  -6.9815017793757386e-03  -4.5229337739488978e-03  -2.1867272861408698e-02  -1.3187371002825743e-02  -5.1689949772639077e-01  -1.1224523254856520e-02  -2.7653114166735712e-02  -9.1748522895804485e-02  -2.4197623506828897e-01  -1.8286547157838683e-02  -9.2433358506172486e-03  -3.8997150526173335e-02  -6.5703437805695195e-02  -4.7799503895779694e-01  -2.5263962810482838e-02  -1.8755593191502958e-03  -3.5861305639949187e-02  -6.0116946781937047e-02  -4.8242772404245193e-01  -1.4034145733948220e-03  -5.1030073837800927e-01  -5.3529360356062228e-01  -4.9569417237697355e-01  -4.9732471834676167e-01  -1.3348613412961241e-01  -1.8682962225137997e-03  -5.2538656308886766e-01  -8.5045308867784440e-04  -6.4109330287639630e-04  -6.2503771400891049e-03  -1.3353176545926777e-03  -1.5893610993387080e-02  -4.1454871261949144e-01  -9.8788263252272725e-03  -1.5371327092342923e-01  -9.6600264504665134e-02  -1.9186041772218831e-02  -3.0054887532927682e-03  -4.3934006624069527e-01  -2.6475436192538615e-02  -1.0553435319705793e-02  -1.3533213407141298e-01  -1.7688204799671389e-03  -1.3910360168749036e-02  -3.2549230718874625e-02  -5.4403803586142552e-02  -7.6195363872670008e-02  -4.4680960859847386e-02  -1.2311018940672168e-03  -3.9555269301374610e-02  -6.6703422395163248e-02  -3.0782430377743319e-01  -3.1267016394400583e-02  -2.1793033995749559e-02  -4.4913735546557197e-03  -2.3428704399453208e-02  -5.3227303486959041e-03  -5.0982161264919119e-02  -8.8484690894315599e-02  -2.0006789303150727e-01  -1.2206361955803692e-01  -2.2750962526845628e-01  -1.1161346732206100e-01  -1.2550169226067087e-02  -1.6645775777690299e-02  -8.0735491152510146e-03  -5.5015466523950951e-02  -4.8232818789330245e-01  -1.7458842240188144e-01  -1.3628551574485612e-01  -3.3048745535950670e-02  -4.4054380048927852e-02  -7.5002435273425205e-02  -8.1854090915092853e-02  -4.7624604413262113e-02  -2.6905311227455662e-03  -5.1758192262681724e-01  </DataArray> 
</PointData> 
</Piece>
</UnstructuredGrid>
</VTKFile>