<?xml version="1.0"?>
<VTKFile type="UnstructuredGrid"  version="0.1"  >
<UnstructuredGrid>
<Piece  NumberOfPoints="5509" NumberOfCells="10462">
<Points>
<DataArray  type="Float64"  NumberOfComponents="3"  format="ascii">0.0001 3.141592653589793 0  0.0001 0 0  30 0 0  30 3.141592653589793 0  15.00005 0 0  15.00005 3.141592653589793 0  7.500075 0 0  7.500075 3.141592653589793 0  22.500025 3.141592653589793 0  22.500025 0 0  18.7500375 0 0  18.7500375 3.141592653589793 0  11.2500625 3.141592653589793 0  11.2500625 0 0  3.7500875 0 0  3.7500875 3.141592653589793 0  26.2500125 3.141592653589793 0  26.2500125 0 0  16.87504375 0 0  16.87504375 3.141592653589793 0  9.375068750000001 0 0  9.375068750000001 3.141592653589793 0  5.62508125 3.141592653589793 0  5.62508125 0 0  1.87509375 0 0  1.87509375 3.141592653589793 0  13.12505625 0 0  13.12505625 3.141592653589793 0  20.62503125 3.141592653589793 0  20.62503125 0 0  24.37501875 0 0  24.37501875 3.141592653589793 0  28.12500625 0 0  28.12500625 3.141592653589793 0  23.437521875 1.570796326794896 0  21.562528125 1.570796326794897 0  17.812540625 1.570796326794897 0  30 1.570796326794897 0  8.437571875 1.570796326794897 0  4.687584375 1.570796326794897 0  0.0001 1.570796326794897 0  2.812590625 1.570796326794897 0  6.562578125 1.570796326794896 0  10.312565625 1.570796326794897 0  15.937546875 1.570796326794897 0  12.187559375 1.570796326794897 0  14.062553125 1.570796326794897 0  27.187509375 1.570796326794896 0  25.312515625 1.570796326794897 0  19.687534375 1.570796326794896 0  1.4063453125 1.344923530017131 0  28.5937546875 1.34492353001713 0  0.937596875 3.141592653589793 0  29.062503125 3.141592653589793 0  0.937596875 0 0  29.062503125 0 0  30 0.7853981633974483 0  26.2500125 2.076431806882503 0  26.20486566374202 1.038215903441251 0  25.312515625 0 0  16.87504375 2.076431806882503 0  16.82989691374202 1.038215903441251 0  15.937546875 0 0  17.812540625 0 0  18.7500375 1.06516084670729 0  18.70489066374202 2.103376750148541 0  17.812540625 3.141592653589793 0  22.500025 2.076431806882503 0  22.45487816374202 1.038215903441251 0  21.562528125 0 0  21.562528125 3.141592653589793 0  23.437521875 3.141592653589793 0  23.437521875 0 0  9.375068750000001 2.076431806882503 0  9.329921913742023 1.038215903441251 0  8.437571875 0 0  13.12505625 2.076431806882503 0  13.07990941374202 1.038215903441251 0  12.187559375 0 0  8.437571875 3.141592653589793 0  4.687584375 3.141592653589793 0  4.687584375 0 0  14.062553125 3.141592653589793 0  14.062553125 0 0  12.187559375 3.141592653589793 0  15.937546875 3.141592653589793 0  10.312565625 0 0  10.312565625 3.141592653589793 0  6.562578125 3.141592653589793 0  7.500075 2.076431806882503 0  7.454928163742024 1.038215903441252 0  6.562578125 0 0  5.62508125 1.06516084670729 0  5.670228086257977 2.103376750148541 0  3.7500875 2.076431806882503 0  3.704940663742024 1.038215903441252 0  2.812590625 0 0  2.812590625 3.141592653589793 0  19.687534375 3.141592653589793 0  20.62503125 2.076431806882504 0  20.57988441374203 1.038215903441252 0  19.687534375 0 0  24.37501875 1.065160846707289 0  24.32987191374202 2.103376750148541 0  25.312515625 3.141592653589793 0  27.187509375 0 0  27.187509375 3.141592653589793 0  15.00005 2.076431806882504 0  14.95490316374203 1.038215903441252 0  11.2500625 1.065160846707289 0  11.29520933625797 2.103376750148541 0  28.5937546875 2.304405994546336 0  1.998301138735648 2.149965555304403 0  0.8143894862643526 2.149965555304403 0  30 2.356194490192345 0  2.3438421875 0.7853981633974484 0  0.0001 0.7853981633974483 0  27.6562578125 2.356194490192346 0  27.6562578125 0.7853981633974469 0  29.23796071450854 1.824664762281735 0  19.4775624425692 2.356194490192344 0  17.99404377643152 0.7853981633974484 0  25.13101247356848 0.7853981633974479 0  16.07390319017354 0.7853981633974484 0  21.69888444017354 0.7853981633974484 0  23.25601872356848 2.356194490192345 0  6.426221809826457 2.356194490192345 0  10.49406877643152 0.7853981633974482 0  14.19890944017355 0.7853981633974483 0  14.24405627643152 2.356194490192345 0  4.86908752643152 0.7853981633974483 0  8.227599942569201 0.7853981633974483 0  8.256068723568481 2.356194490192345 0  12.00605622356848 0.7853981633974484 0  12.05120305982645 2.356194490192345 0  10.13106247356848 2.356194490192345 0  4.897556307430801 2.356194490192345 0  2.758096819385039 2.356194490192345 0  0.0001 2.356194490192345 0  25.49401877643152 2.356194490192344 0  23.61902502643152 0.7853981633974482 0  6.38107497356848 0.7853981633974482 0  15.75604372356848 2.356194490192345 0  21.38102497356848 2.356194490192345 0  17.63103747356848 2.356194490192345 0  19.50603122356848 0.7853981633974486 0  0.8091588242722327 0.7989133294490852 0  29.19094117572777 0.798913329449084 0  26.92532364276063 0.8817358426904538 0  1.4063453125 2.579884070526784 0  26.90817694455783 2.442298521935069 0  27.92373830878669 1.663973937106621 0  1.64071953125 0.6724617650085655 0  28.35938046875 0.6724617650085656 0  20.1562828125 2.609012230236148 0  4.2188359375 2.609012230236148 0  2.105405812721427 1.451053697965459 0  3.066664798856938 0.6842192704440914 0  20.1562828125 0.4997060233980348 0  7.0313265625 0.499706023398034 0  23.88583035246175 2.624318416228209 0  18.26084910246175 2.624318416228209 0  12.6563078125 0.4997060233980329 0  8.9063203125 0.4997060233980329 0  25.76082410246175 0.5172742373615837 0  17.33120893196054 0.5399259079058234 0  22.03870420593913 2.609012230236148 0  22.95619018196054 0.5399259079058234 0  4.206252681960538 0.5399259079058225 0  16.4062953125 2.619594802989763 0  8.9063203125 2.619594802989763 0  9.831233931960538 0.5399259079058233 0  13.5938046875 2.619594802989763 0  10.79389731803946 2.601666745683971 0  24.8437671875 2.619594802989764 0  0.7394694155368845 1.474719373564248 0  12.6563078125 2.655675462355382 0  13.5551333318547 0.5387914664280379 0  21.0937796875 0.4859171912344095 0  7.0313265625 2.655675462355384 0  15.43012708185469 0.5387914664280367 0  29.3285021510026 2.50688009573946 0  3.364841737260364 2.609012230236148 0  1.409985134780835 1.962403800271958 0  0.4688484375 3.141592653589793 0  2.3438421875 3.141592653589793 0  15.5825004096906 1.104619418487569 0  13.70750665969061 1.104619418487568 0  13.71236326961885 2.043433095799237 0  8.755370285008466 2.057910080416815 0  9.022249677435363 1.536570529080364 0  16.25534528500847 2.057910080416815 0  16.52222467743536 1.536570529080363 0  24.92366631105196 2.026154694648643 0  21.18194521815008 1.100185928274085 0  21.87370838766628 2.056380646487345 0  22.14808783840126 1.538048190012078 0  4.33324587117594 2.035741102053015 0  4.006019765784991 1.54521303074963 0  3.409889652758044 1.585268892513827 0  19.9715480549401 2.067492350713148 0  20.28531751018753 1.558528798059689 0  10.61934262455715 2.055363065637101 0  10.90010191449819 1.53822270414762 0  4.380807375442849 1.086229587952693 0  10.00578862544285 1.086229587952693 0  9.725029335501812 1.603369949442174 0  17.50576362544285 1.086229587952693 0  17.22500433550181 1.603369949442172 0  23.13074487544285 1.086229587952692 0  22.84998558550181 1.603369949442171 0  0.4688484375 0 0  29.5312515625 0 0  13.34340475149824 1.54684736138027 0  12.76672660526234 1.618886991242595 0  15.36782956013155 1.636408044451234 0  20.9950359145062 1.640533602249165 0  22.0312765625 0 0  16.58708488403538 0.5075676609978845 0  5.913040115964622 2.634024992591908 0  11.53802136596462 2.634024992591907 0  14.71209113403538 0.5075676609978858 0  22.26565078125 0.5098977902953856 0  29.6019176635082 1.178097245096172 0  19.21086918313511 1.864128986605879 0  26.65602119046449 1.378615467947414 0  5.164249566864894 1.86412898660588 0  7.960906683135107 1.277463666983913 0  26.47164670626602 0.5297273244300663 0  6.916369597670539 2.036755350493144 0  7.12983608140248 1.507383199616695 0  24.56548599955196 1.593532875493391 0  24.00030368480145 1.641709334587738 0  20.01033535803279 1.050372204536984 0  18.1273359429097 2.057216074872408 0  18.39904204572843 1.536303957786078 0  12.51036035803279 1.050372204536979 0  25.62836556249551 1.079897040982236 0  25.95350175423915 1.569236024523328 0  8.702141296318096 1.079298619791324 0  7.732749823512855 2.609012230236148 0  18.98271232351286 0.5325804233536452 0  25.7812640625 3.141592653589793 0  26.01733767648714 2.609012230236148 0  17.3437921875 3.141592653589793 0  20.85770607351285 2.609012230236148 0  15.23272482351286 2.609012230236149 0  5.392406426487145 0.5325804233536449 0  14.5313015625 3.141592653589793 0  22.73269982351286 2.609012230236148 0  17.10771857351286 2.609012230236148 0  18.2812890625 0 0  11.48273732351286 0.5325804233536444 0  9.843817187500001 3.141592653589793 0  9.607743573512856 2.609012230236148 0  23.9062703125 0 0  10.7813140625 0 0  24.14064453125 0.5309446515973335 0  5.93908344535534 0.4542978584934494 0  24.68794272470485 0.4553357117535944 0  28.08728337491464 1.144370519098579 0  7.716168974886271 0.5294864073740819 0  18.96613147488627 2.612106246215711 0  5.156332812500001 3.141592653589793 0  26.76926796992892 1.91725896901098 0  19.25115034100718 1.257971865814588 0  7.961620809777196 1.810259701395937 0  5.123968408992828 1.257971865814588 0  6.126194091007172 1.257971865814588 0  11.75117534100717 1.257971865814587 0  14.66765787767354 1.570796326794897 0  5.389545373259498 2.552687121248888 0  0.4936414300012104 2.59421505214546 0  2.10946796875 2.667245445167741 0  12.54498877329874 2.1195458166069 0  6.797440229523341 1.102848903723741 0  11.78185504428652 1.904896054195289 0  5.605259867305674 1.586112337064355 0  3.685442669291818 0.5172784756274944 0  6.15687379428652 1.90489605419529 0  23.7334084139784 2.108588781464944 0  3.221128960319358 2.099431274963118 0  29.10852116765864 1.326081827808101 0  10.98113167257853 0.6305538595257408 0  14.69945431711977 2.634867314303652 0  18.48110667257853 0.6305538595257421 0  3.2813390625 0 0  0.3995175524482088 
[...]
<PointData  Scalars="f_16-0"> 
<DataArray  type="Float64"  Name="f_16-0"  format="ascii">-3.9949148423393266e-01  -3.9948892636203209e-01  0.0000000000000000e+00  0.0000000000000000e+00  -2.6954631274691363e-03  -2.6950495788930959e-03  -8.2711449388749528e-03  -8.2716814095941515e-03  -8.8860458098757801e-04  -8.8864204079139634e-04  -1.6070246067675497e-03  -1.6071447553249615e-03  -4.5316093244723021e-03  -4.5315928570818240e-03  -1.9816747007292128e-02  -1.9819616779995206e-02  -3.7962638422858660e-04  -3.7958381613777223e-04  -2.0892542556817922e-03  -2.0891242462372631e-03  -6.0183728995699803e-03  -6.0191788450918429e-03  -1.2077139706932501e-02  -1.2070741147256118e-02  -4.3789531774552908e-02  -4.3758622226440606e-02  -3.4797172659693622e-03  -3.4788848586889696e-03  -1.2143993105481251e-03  -1.2143885125601567e-03  -6.1410914813829910e-04  -6.1413573094272228e-04  -1.7694686637110825e-04  -1.7692897452558162e-04  -7.4376936550159907e-04  -1.0417795647918375e-03  -1.8311279790609531e-03  0.0000000000000000e+00  -7.0025153611765686e-03  -1.5122276252464418e-02  -3.9949093487023918e-01  -2.7642617438227119e-02  -9.8766722758354460e-03  -5.1963265481642026e-03  -2.3691593299248262e-03  -3.9569324430391295e-03  -3.0545404723574024e-03  -2.7375780481784319e-04  -4.9092870574594970e-04  -1.3979886841357257e-03  -5.9951175410518143e-02  -1.3000259734499296e-04  -9.3556167846256449e-02  -8.5588285524868622e-05  -9.3432872136212194e-02  -8.5608708591107812e-05  0.0000000000000000e+00  -3.7844419845045905e-04  -3.8368270701535500e-04  -4.9239766163691463e-04  -2.0851525906422606e-03  -2.0979569431900770e-03  -2.3741758131693843e-03  -1.8352645939150669e-03  -1.6036197454971312e-03  -1.6141422117469449e-03  -1.8352713691727821e-03  -8.8650769811261625e-04  -8.9368381299757067e-04  -1.0442362110090983e-03  -1.0443070935670022e-03  -7.4577200653390592e-04  -7.4579562137730134e-04  -6.0078407479858577e-03  -6.0509020230812690e-03  -7.0161891334303492e-03  -3.4726484655247035e-03  -3.4945958469755250e-03  -3.9649873947321286e-03  -7.0190498044158771e-03  -1.5155124852923347e-02  -1.5147551649544398e-02  -3.0599791440418934e-03  -3.0608304649802813e-03  -3.9639414113188318e-03  -2.3739609483933244e-03  -5.2050949653469052e-03  -5.2058302122214729e-03  -9.8964678643872570e-03  -8.2554784327981030e-03  -8.3234004450266474e-03  -9.8931837351963862e-03  -1.2049757001832620e-02  -1.1929357010028131e-02  -1.9777315484294858e-02  -2.0061629248522582e-02  -2.7683432800875069e-02  -2.7701207220276761e-02  -1.4011209626951602e-03  -1.2117010121986181e-03  -1.2202615881317480e-03  -1.4012549303686996e-03  -6.1247719191556552e-04  -6.1854929091357137e-04  -4.9247923211642904e-04  -2.7469173536888035e-04  -2.7473702881916168e-04  -2.6900105573413133e-03  -2.7065304107121444e-03  -4.5239879529567822e-03  -4.4943291311907128e-03  -1.3002242891993083e-04  -4.0686685220626066e-02  -1.0828756021040899e-01  0.0000000000000000e+00  -3.4004708508836322e-02  -3.9948943638168455e-01  -2.2427384419927934e-04  -2.2424686620527696e-04  -6.8840545444671741e-05  -1.4426973694563778e-03  -1.7856221972536107e-03  -5.1388890773487142e-04  -2.3261903163211391e-03  -1.0186471176704692e-03  -7.7075249968766373e-04  -1.0153012761748176e-02  -5.0565884876437725e-03  -2.9988502248391720e-03  -2.9808819024344730e-03  -1.4434723488598925e-02  -7.2594936650879289e-03  -7.2245499839936993e-03  -4.0598370365034870e-03  -4.0343558462107663e-03  -5.3426007765360571e-03  -1.4333605303478976e-02  -2.8284376371390953e-02  -3.9949180716265198e-01  -4.6867215528096181e-04  -7.1774134791688263e-04  -1.0247571557051173e-02  -2.4288313043800431e-03  -1.0738284365911488e-03  -1.8786468385126520e-03  -1.4365547268568651e-03  -1.0939821025415153e-01  -7.3257813980731959e-05  -3.0234619940984247e-04  -5.9962434526254105e-02  -3.0431278975735787e-04  -1.9662077421953801e-04  -5.0616231017555829e-02  -1.5301791627447771e-04  -1.3033602361525365e-03  -1.7195722196513320e-02  -3.8346102235682418e-02  -2.5028253205317288e-02  -1.3033262858657432e-03  -9.0146312919243427e-03  -6.8011111974221241e-04  -1.7202844040871293e-03  -3.7068864662586553e-03  -6.4804906437547173e-03  -4.3638448694925913e-04  -1.9588723511795116e-03  -9.6182709009936986e-04  -8.1601532752595103e-04  -1.7253115440674698e-02  -2.2240695690934034e-03  -6.4811484688355962e-03  -5.5944368061838822e-03  -3.2576391542782296e-03  -4.8380664065628834e-03  -5.5087325705358101e-04  -1.2030597271502239e-01  -3.7074858184811986e-03  -3.2745960339760085e-03  -1.1254397003663524e-03  -9.0136312065312169e-03  -2.5388952971135623e-03  -6.0517791459444474e-05  -2.2481356228397854e-02  -5.9773461485106788e-02  -1.9884877855487390e-01  -3.4100970199851366e-02  -2.4861022722089377e-03  -3.2059953940681944e-03  -3.2038903509865693e-03  -6.6414729394000671e-03  -6.3567737177045438e-03  -2.2692281350419848e-03  -2.1879698174066334e-03  -5.4022707675953222e-04  -1.1089225002086916e-03  -9.8877281714677794e-04  -9.4317198557424637e-04  -1.6642233977637023e-02  -1.8285117131289878e-02  -2.2119850438114142e-02  -1.3397744791011903e-03  -1.2771027722956684e-03  -4.9631395796206025e-03  -4.7607804826143149e-03  -1.6420951428923490e-02  -5.4448515668655533e-03  -5.6852742956640051e-03  -1.9112662803160397e-03  -1.9868098007367737e-03  -7.8924723656388944e-04  -8.3177060187437186e-04  -1.9675512101579895e-01  -4.2098936125806500e-05  -3.3700073939059634e-03  -3.6490982363039924e-03  -2.5592727864184707e-03  -1.1427084831135239e-03  -9.6471196994118058e-04  -2.1697559595913823e-03  -1.1312638060298863e-02  -4.3415831397913057e-03  -2.7980396204232111e-03  -9.2458092097881051e-04  -3.5520798666462323e-05  -1.5000260984845172e-03  -3.3215761943871004e-04  -1.3418618314838216e-02  -7.6026450910097257e-03  -3.5319066864787158e-04  -9.2120544397279180e-03  -8.8433094355553060e-03  -5.8696841859265478e-04  -6.6365371903607672e-04  -1.3319117651731740e-03  -1.7522694289014403e-03  -1.6859513418211102e-03  -3.7817298190619829e-03  -4.5214109914885512e-04  -4.1307897067736487e-04  -6.7002965690090141e-03  -7.9178581657462915e-03  -1.5513347683185665e-03  -4.3503823762634645e-04  -4.0585192997591381e-04  -1.9586333994821648e-03  -1.1686699644154607e-03  -2.6078671180669497e-03  -1.2715351741196656e-02  -2.8715273281493476e-03  -8.5048688244260598e-04  -2.0202616906852674e-03  -1.7179678627928449e-03  -4.3755170374314596e-03  -5.5928224372241561e-03  -5.7931492532378873e-03  -6.7862562783421883e-04  -4.8535783097178077e-03  -6.4466260555730672e-04  -1.1247994218770090e-02  -5.7128880605610303e-04  -1.8009133573148109e-04  -7.9415013598948016e-03  -1.5550945893817870e-03  -1.3474859192482588e-02  -3.1949931940415048e-04  -1.4911614726068442e-03  -7.6011567922578457e-03  -1.3549629588580289e-02  -1.0801524104144138e-02  -4.2089687177741131e-03  -2.8137760673915355e-03  -1.2724486709185488e-02  -1.8586931735046425e-01  -3.8311945501606916e-02  -3.7635399422743941e-03  -9.4255299685633374e-03  -4.1905425223500610e-03  -1.2107471118688854e-02  -2.0193082924948501e-02  -1.0734469954237864e-02  -7.0124657297575385e-04  -2.3641797429696715e-02  -8.0919806338288459e-05  -4.7058652768020345e-03  -2.8030455691993544e-03  -1.6670286548135628e-03  -2.3201600335416434e-02  -2.2782109732658337e-01  -2.2124137439825611e-01  -3.3103647160320646e-02  -2.6742551546207397e-04  -5.4951926883879568e-04  -1.0840582667827927e-04  -6.0163628489275527e-02  -7.2259915666161689e-02  -2.3536863309307300e-02  -3.2625659620819580e-04  -1.4782352992850280e-04  -1.7492127673338984e-04  -1.3051015061905805e-04  -1.0239010735145226e-04  -6.1419006754891191e-04  -2.8473789019300672e-02  -4.4376348353099750e-03  -3.4739086589195239e-03  -1.2124369678986500e-03  -1.1273326091069942e-03  -3.2629486718531559e-03  -3.7112043600122020e-03  -5.5916868327853149e-03  -6.4919422791556523e-03  -2.2272974338851254e-03  -8.1575500688537707e-04  -9.6469472425755735e-04  -1.9587854573590445e-03  -6.4905108879136468e-03  -3.7128967068886312e-03  -1.7180851182688329e-03  -6.7865485914065987e-04  -1.3055389418370963e-03  -1.3055757823371250e-03  -2.2499806983569004e-04  -1.3057337789618343e-04  -2.2499052655901221e-04  -3.2622153345198655e-03  -5.5213495478574604e-04  -4.2118189867060692e-05  -2.2275924311351007e-03  -1.1274041275588617e-03  -8.1566426218952033e-04  -5.5207847200856831e-04  -1.7214173826290750e-02  -1.7218459049355313e-02  -6.0101602041950600e-02  -1.0894911898980302e-02  -2.3194553570166542e-02  -9.0285786597006003e-03  -9.0262605993516910e-03  -3.4088829659121064e-02  -1.0902148876742922e-02  -7.6067491229503022e-03  -1.3469140420204246e-02  -7.6060195632781233e-03  -4.2366210823552358e-03  -2.5298476277381870e-03  -4.8534751550043075e-03  -4.2364690821985749e-03  -2.8722757085641571e-03  -2.5291253368263226e-03  -3.2619492960934531e-04  -4.3495157687379986e-04  -1.5016690612827841e-03  -1.5015903171679099e-03  -6.7682941066843708e-04  -3.6118955428656427e-05  -6.0136239139776627e-03  -1.8413396106436989e-04  -2.9950904484668327e-04  -2.2904419691120191e-04  -3.6565901602233877e-05  0.0000000000000000e+00  -3.8315583278524364e-02  -2.9427255058861287e-02  -3.9948921402335508e-01  -2.4902816550038996e-04  -2.9315877300486138e-03  -2.5021310959383162e-04  -2.0021670007321424e-04  -9.1839565477439114e-02  -4.3222524793407242e-04  -4.1922612827814211e-02  -3.5509117199526805e-04  -1.9592469671016471e-01  -3.4822201521897160e-03  -1.5758484014278106e-03  -2.8603676282830540e-03  -3.0994025665371915e-02  -8.1750433523765497e-03  -9.9506492974404752e-04  -2.2831878863897696e-03  -4.5765970054207301e-02  -8.1749818173350156e-04  -1.9615191603766136e-03  -4.9861603469512255e-03  -5.4190057360725130e-03  -1.9528625669379358e-02  -1.7623373891856955e-03  -9.9244957510029623e-04  -2.2944057364536093e-03  -1.0379703806618927e-02  -4.0969745900463067e-03  -2.9580198325949670e-03  -1.1481787051286974e-04  -6.8191826954199952e-02  -4.0927156332845535e-03  -7.2935544364731786e-03  -2.4734731273053931e-03  -4.9525734478698671e-03  -4.6255572744647769e-04  -1.4487801566520470e-03  -1.3978190501339220e-02  -1.7509674770386958e-03  -1.8937103965459227e-03  -5.3880704704704690e-03  -1.0976201719853306e-03  -7.9078024662427996e-04  -6.9983283011468441e-04  -2.6067622516931628e-02  -7.6604924293519477e-02  -7.2934811273942246e-03  -1.4487478719838276e-03  -1.4254007971371066e-02  -1.0775580738437686e-04  -5.2603827618095452e-03  -1.8523996427019353e-03  -2.4501123512011384e-03  -2.9611558576202743e-03  -1.0845790601938324e-03  -1.4921432344346695e-02  -1.5460320259087590e-02  -3.5865265789142222e-04  -7.7221424346077937e-03  -7.5570887389597534e-04  -5.6593474145330584e-03  -1.8566011945939987e-03  -1.1133101021839231e-02  -5.1823429603854851e-04  -1.0314589713530962e-02  -7.1263004954879887e-03  -3.0342504905534226e-03  -1.1424601687157622e-03  -2.5579884302229460e-03  -4.8112788269130251e-04  -7.5643469187801273e-04  -8.9489029462178895e-05  -3.7083858628513386e-05  -1.0290058894032036e-03  -2.2067760264773638e-03  -9.5279374010258714e-04  -3.9633082042775762e-03  -2.3470122160199106e-03  -2.6034766957432401e-04  -2.8456460712671474e-03  -2.2632006656934982e-04  -1.4175822190437652e-03  -3.3442040838519579e-02  -2.8023270736890597e-02  -3.9878559146445374e-03  -1.4096810956367254e-03  -1.5245269981997496e-03  -7.7850958579295370e-03  -3.9949022062513606e-01  0.0000000000000000e+00  0.0000000000000000e+00  -3.9949137885854774e-01  -3.9949153680215077e-01  0.0000000000000000e+00  -4.9960909597082420e-04  -7.3261926853483727e-04  -1.5172845139274230e-03  -1.3070922722610295e-02  -4.2809338063516042e-03  -7.1622548630563573e-05  -7.3527718245090063e-04  -9.9225735599531607e-03  -1.0569801488409642e-03  -1.0981924902964044e-02  -4.2741208955540920e-03  -3.1072213669794480e-03  -2.4100217076010776e-03  -7.1376953283445801e-03  -8.3440722431703890e-02  -1.4851454368986468e-02  -5.7072187136125165e-04  -1.1593659422639993e-03  -2.8923018286361170e-04  -1.3846116907297536e-04  -5.3831564553331553e-04  -2.0331571070805990e-01  -2.4346397812430182e-01  -8.4572181055274486e-03  -3.6066937326879297e-03  -2.0607927259359282e-03  -4.5768787817006256e-03  -1.6362852939359789e-04  -5.1187682945061756e-03  -3.4110973228629576e-04  -2.9112746371104999e-04  -6.8178373745880448e-03  -3.1847692148082127e-02  -2.1093987010670868e-04  -4.6344156268883926e-02  -7.3071972878733224e-02  -5.0672821628075987e-02  -1.1679355244072884e-03  -2.2000836667858559e-02  -2.5540035586019610e-02  -5.7920523306012291e-04  -2.6016277870404983e-03  -1.3189197078500831e-02  -1.5713442957032107e-02  -1.3800331408616469e-03  -1.5831312400654024e-02  -6.8941630420467637e-03  -5.0897982272179651e-04  -1.7954815059627593e-02  -3.1154611838526084e-03  -3.8898179501219154e-03  -9.6357092702740593e-03  -3.2095959259993583e-03  -7.3314612901550918e-02  -2.6637707333912143e-03  -3.3769128447359176e-03  -2.1774755024098007e-03  -6.3202743969729717e-03  -6.8513357670577472e-03  -3.8855236531134632e-03  -1.3714831564098293e-03  -1.0700020630769985e-01  -1.2110462911027458e-03  -3.4397084492028184e-05  -1.4119985324352854e-04  -4.6919468053938547e-02  -1.8818026834513019e-04  -1.6359500518490530e-03  -6.4414049507639326e-04  -4.0635294857416736e-04  -3.9441108614372627e-04  -9.5210778270203369e-03  -3.8603934650353723e-03  -1.3619434229989085e-03  -1.7069086937465789e-03  -1.4695127505321996e-04  -3.5201012763533832e-04  -1.2352311877095801e-03  -1.8659580082015112e-02  -1.2753844285120419e-03  -4.8222810487415163e-03  -4.7049640602921619e-02  -8.6867581849244945e-04  -8.3889450867616496e-04  -8.3784822775546106e-04  -8.8492862634616774e-04  -1.9994787268487659e-03  -1.9976627583211978e-03  -2.0822775582021598e-03  -5.7261556446060301e-03  -5.7204439178500889e-03  -5.9983265418775446e-03  -1.8576093145781705e-02  -1.8025061297184841e-02  -4.6852343796518498e-03  -3.7225639216467769e-04  -1.2262756773339620e-01  -5.2529989111745196e-02  -9.0504228276191870e-04  -8.9832738387897904e-04  -8.3604368480300010e-03  -2.6817724988002275e-03  -2.6090467508758393e-04  -3.1348504538291915e-03  -2.1551565800775924e-03  -6.1225530533287088e-03  -5.1601405981172878e-04  -5.8526427627336090e-04  -1.2773985999048184e-03  -1.7999284493835058e-03  -2.2436060644681032e-02  -1.0793436020745493e-03  -4.7647508908993949e-03  -4.7214933998278056e-03  -9.5934460192294568e-03  -3.3377798984430456e-03  -2.5870488912909926e-03  -1.0102683659937261e-02  -7.2556254486774455e-05  -6.2730615496982864e-04  -3.8070318118186429e-03  -1.6198446171806899e-03  -4.5693275036879158e-03  -1.1915183751360598e-02  -8.4616280781678547e-03  -8.8731584776499846e-03  -1.2763464159737978e-03  -8.6262886908605139e-03  -6.3778641469730436e-03  -3.6374097974601069e-03  -4.6940803723569894e-04  -1.7869979043446547e-03  -6.5928884073617258e-04  -1.6863463293838733e-03  -4.7369000980159419e-04  -2.7386049270402256e-04  -1.6558499269580987e-02  -6.5200139661238544e-04  -4.1636087290104065e-05  -1.0814303372223881e-01  -8.6209942969520965e-03  -6.3486284134941177e-03  -3.8541553203314182e-03  -9.5143224752798350e-03  -2.4810589877022022e-02  -2.3714458102575564e-04  -1.3452547567895049e-03  -3.3480025604447957e-03  -2.6957409925038658e-03  -2.4957637592104120e-02  -3.0706757636060900e-03  -2.0902384463974493e-03  -3.5940833604000497e-03  -3.3573391497758740e-03  -1.0534583213666539e-03  -5.7945578540832673e-03  -1.1676585237702811e-03  -1.2610903742899160e-03  -3.3657934824710598e-03  -1.2180199716250537e-03  -3.6322300829954601e-03  -3.7910206451048207e-03  -8.8289895191775308e-04  -5.3166873906962979e-03  -1.8705293326912249e-03  -6.2481328482792784e-03  -1.7905954205528589e-02  -2.1496052044550965e-02  -2.0719700210223728e-02  -2.9366373702918616e-03  -2.1827064152319924e-03  -6.6966876186279785e-03  -1.6167395254965398e-03  -1.2195967665904306e-01  -2.3227514634434343e-03  -2.4316130243959857e-03  -3.1766714457040950e-03  -1.0168594508007253e-03  -1.6137438374470025e-02  -1.0577524468446522e-02  -4.2344610003160945e-03  -5.0256297129561353e-03  -3.4260131733532831e-04  -4.1348032181055469e-02  -4.5341123717824842e-04  -7.6534743480167577e-04  -4.2832579064860064e-04  -2.1737113747771295e-03  -6.3081523523145430e-03  -1.6303683623070341e-03  -1.0948038812408412e-03  -9.3596598984809745e-04  -9.4062475720377281e-04  -9.5138043018801904e-04  -3.5303111991053224e-02  -2.9393262278399529e-02  -6.0587568246315178e-03  -2.0899938477055816e-03  -2.8321863987988763e-05  -3.5942189086654490e-03  -2.8523569684677343e-03  -1.1498747870208848e-04  -4.1878103588142973e-04  -4.1404424589251752e-04  -1.1494225350924153e-02  -2.3874011765341575e-03  -2.4680588422697270e-03  -4.5777862131936563e-04  -1.2729696491163744e-02  -2.7324259416721319e-03  -7.0496441844438730e-04  -1.2244594897522240e-03  -1.2790175333010313e-03  -1.3372747664961654e-03  -1.3338241235179189e-03  -6.0446358758545747e-04  -8.9545867881944113e-03  -2.5987823425943896e-01  -4.9592586655396717e-02  -7.9280612763132308e-02  -7.8612826742784179e-04  -7.9403472012326559e-04  -2.2781011310670724e-03  -1.1303010586406322e-02  -2.1378674395046530e-02  -3.3396751511684843e-03  -1.0040035816176146e-03  -5.8860089079548893e-02  -2.8099655573909257e-03  -7.9174688214827399e-04  -7.0040700749211360e-04  -7.0625649827496962e-04  -8.7377333215912789e-04  -2.0622413067176593e-03  -5.9317061823841886e-03  -1.6135313576443339e-02  -3.4845785175333793e-03  -2.0891728879969876e-05  -3.0535947599778562e-01  -3.0503101246906478e-01  -1.9168759398645982e-03  -5.4606374134705503e-03  -3.8632690285397807e-02  -1.5353634621009267e-04  -8.4874490153257843e-04  -1.9641947462991569e-03  -1.3066019154824039e-02  -1.5070246682400540e-03  -1.9059879726724281e-03  -1.9224098908964008e-03  -5.6850527923964275e-03  -1.0853543151614290e-03  -8.0589175177516650e-03  -2.4834656586785824e-03  -3.1600370803027745e-03  -2.7684322688505647e-01  -2.7425206709596759e-03  -2.6011483551553468e-02  -5.1801452840442705e-03  -3.2021681377533218e-03  -1.8259589807717619e-03  -4.7117548075918886e-03  -1.2616586898008736e-02  -5.7964669361302678e-04  -5.1557790021439958e-04  -2.1623615558286392e-02  -1.9993026960292978e-02  -1.6687829354190883e-03  -5.1656902101420822e-03  -4.9664487684149628e-03  -6.5948223802064754e-04  -7.2625180397740941e-04  -2.5908692799123377e-03  -1.6474644077603202e-02  -4.9753675881102051e-03  -1.6982686784392526e-04  -6.6722812983402140e-03  -1.6198163798798723e-02  -3.2157101902937832e-04  -1.1599372052411593e-03  -1.8158217152529334e-02  -2.7815155260161525e-03  -2.7012246429118786e-03  -2.6106392967744189e-03  -4.9776742340954076e-03  -1.4025672327493525e-02  -5.4319287739718674e-03  -5.6851666713962967e-02  -1.7549929972032695e-03  -3.9124936297574845e-04  -1.5132260546239515e-03  -7.9285130756682511e-03  -7.6793955841052038e-03  -9.9022044405333576e-04  -6.6783631580343171e-03  -6.6365164293931359e-03  -2.2738231106225991e-03  -2.3512116793511229e-03  -9.3034318589822231e-03  -9.3852608335931662e-03  -9.9071378505802797e-04  -3.4624398414835451e-03  -3.3102248169366048e-04  -1.0321344485842408e-03  -1.6482518845040958e-04  -2.6009677862534353e-04  -2.2503481885640954e-03  -1.1911620792809791e-02  -1.1882288410875543e-02  -2.7587730616622421e-03  -4.3808744961908964e-03  -4.4826123187256157e-03  -2.1348475525558215e-03  -4.1776280687665680e-03  -2.9004072566269239e-03  -1.5643243499644085e-03  -6.1943312486000928e-05  -4.0707229235086278e-04  -4.2737861674238081e-04  -1.5122954092852731e-03  -8.3151324817883499e-04  -1.1461347973716683e-03  -5.6361747076838498e-03  -1.9720215947826910e-03  -1.3104796717414385e-02  -7.6744635843104553e-03  -2.5649369055044868e-03  -4.2666491721082044e-03  -3.6168696914988486e-03  -3.8613214736565849e-04  -1.6003635714120341e-03  -3.8622933123011612e-04  -2.0696070131150800e-03  -1.3543712398665298e-02  -7.5533114497653093e-03  -4.5136436196715254e-03  -1.2013802258436033e-02  -4.2042695093234871e-03  -1.4896215282492087e-03  -5.5635234799523859e