<?xml version="1.0"?>
<VTKFile type="UnstructuredGrid"  version="0.1"  >
<UnstructuredGrid>
<Piece  NumberOfPoints="5509" NumberOfCells="10462">
<Points>
<DataArray  type="Float64"  NumberOfComponents="3"  format="ascii">0.0001 3.141592653589793 0  0.0001 0 0  30 0 0  30 3.141592653589793 0  15.00005 0 0  15.00005 3.141592653589793 0  7.500075 0 0  7.500075 3.141592653589793 0  22.500025 3.141592653589793 0  22.500025 0 0  18.7500375 0 0  18.7500375 3.141592653589793 0  11.2500625 3.141592653589793 0  11.2500625 0 0  3.7500875 0 0  3.7500875 3.141592653589793 0  26.2500125 3.141592653589793 0  26.2500125 0 0  16.87504375 0 0  16.87504375 3.141592653589793 0  9.375068750000001 0 0  9.375068750000001 3.141592653589793 0  5.62508125 3.141592653589793 0  5.62508125 0 0  1.87509375 0 0  1.87509375 3.141592653589793 0  13.12505625 0 0  13.12505625 3.141592653589793 0  20.62503125 3.141592653589793 0  20.62503125 0 0  24.37501875 0 0  24.37501875 3.141592653589793 0  28.12500625 0 0  28.12500625 3.141592653589793 0  23.437521875 1.570796326794896 0  21.562528125 1.570796326794897 0  17.812540625 1.570796326794897 0  30 1.570796326794897 0  8.437571875 1.570796326794897 0  4.687584375 1.570796326794897 0  0.0001 1.570796326794897 0  2.812590625 1.570796326794897 0  6.562578125 1.570796326794896 0  10.312565625 1.570796326794897 0  15.937546875 1.570796326794897 0  12.187559375 1.570796326794897 0  14.062553125 1.570796326794897 0  27.187509375 1.570796326794896 0  25.312515625 1.570796326794897 0  19.687534375 1.570796326794896 0  1.4063453125 1.344923530017131 0  28.5937546875 1.34492353001713 0  0.937596875 3.141592653589793 0  29.062503125 3.141592653589793 0  0.937596875 0 0  29.062503125 0 0  30 0.7853981633974483 0  26.2500125 2.076431806882503 0  26.20486566374202 1.038215903441251 0  25.312515625 0 0  16.87504375 2.076431806882503 0  16.82989691374202 1.038215903441251 0  15.937546875 0 0  17.812540625 0 0  18.7500375 1.06516084670729 0  18.70489066374202 2.103376750148541 0  17.812540625 3.141592653589793 0  22.500025 2.076431806882503 0  22.45487816374202 1.038215903441251 0  21.562528125 0 0  21.562528125 3.141592653589793 0  23.437521875 3.141592653589793 0  23.437521875 0 0  9.375068750000001 2.076431806882503 0  9.329921913742023 1.038215903441251 0  8.437571875 0 0  13.12505625 2.076431806882503 0  13.07990941374202 1.038215903441251 0  12.187559375 0 0  8.437571875 3.141592653589793 0  4.687584375 3.141592653589793 0  4.687584375 0 0  14.062553125 3.141592653589793 0  14.062553125 0 0  12.187559375 3.141592653589793 0  15.937546875 3.141592653589793 0  10.312565625 0 0  10.312565625 3.141592653589793 0  6.562578125 3.141592653589793 0  7.500075 2.076431806882503 0  7.454928163742024 1.038215903441252 0  6.562578125 0 0  5.62508125 1.06516084670729 0  5.670228086257977 2.103376750148541 0  3.7500875 2.076431806882503 0  3.704940663742024 1.038215903441252 0  2.812590625 0 0  2.812590625 3.141592653589793 0  19.687534375 3.141592653589793 0  20.62503125 2.076431806882504 0  20.57988441374203 1.038215903441252 0  19.687534375 0 0  24.37501875 1.065160846707289 0  24.32987191374202 2.103376750148541 0  25.312515625 3.141592653589793 0  27.187509375 0 0  27.187509375 3.141592653589793 0  15.00005 2.076431806882504 0  14.95490316374203 1.038215903441252 0  11.2500625 1.065160846707289 0  11.29520933625797 2.103376750148541 0  28.5937546875 2.304405994546336 0  1.998301138735648 2.149965555304403 0  0.8143894862643526 2.149965555304403 0  30 2.356194490192345 0  2.3438421875 0.7853981633974484 0  0.0001 0.7853981633974483 0  27.6562578125 2.356194490192346 0  27.6562578125 0.7853981633974469 0  29.23796071450854 1.824664762281735 0  19.4775624425692 2.356194490192344 0  17.99404377643152 0.7853981633974484 0  25.13101247356848 0.7853981633974479 0  16.07390319017354 0.7853981633974484 0  21.69888444017354 0.7853981633974484 0  23.25601872356848 2.356194490192345 0  6.426221809826457 2.356194490192345 0  10.49406877643152 0.7853981633974482 0  14.19890944017355 0.7853981633974483 0  14.24405627643152 2.356194490192345 0  4.86908752643152 0.7853981633974483 0  8.227599942569201 0.7853981633974483 0  8.256068723568481 2.356194490192345 0  12.00605622356848 0.7853981633974484 0  12.05120305982645 2.356194490192345 0  10.13106247356848 2.356194490192345 0  4.897556307430801 2.356194490192345 0  2.758096819385039 2.356194490192345 0  0.0001 2.356194490192345 0  25.49401877643152 2.356194490192344 0  23.61902502643152 0.7853981633974482 0  6.38107497356848 0.7853981633974482 0  15.75604372356848 2.356194490192345 0  21.38102497356848 2.356194490192345 0  17.63103747356848 2.356194490192345 0  19.50603122356848 0.7853981633974486 0  0.8091588242722327 0.7989133294490852 0  29.19094117572777 0.798913329449084 0  26.92532364276063 0.8817358426904538 0  1.4063453125 2.579884070526784 0  26.90817694455783 2.442298521935069 0  27.92373830878669 1.663973937106621 0  1.64071953125 0.6724617650085655 0  28.35938046875 0.6724617650085656 0  20.1562828125 2.609012230236148 0  4.2188359375 2.609012230236148 0  2.105405812721427 1.451053697965459 0  3.066664798856938 0.6842192704440914 0  20.1562828125 0.4997060233980348 0  7.0313265625 0.499706023398034 0  23.88583035246175 2.624318416228209 0  18.26084910246175 2.624318416228209 0  12.6563078125 0.4997060233980329 0  8.9063203125 0.4997060233980329 0  25.76082410246175 0.5172742373615837 0  17.33120893196054 0.5399259079058234 0  22.03870420593913 2.609012230236148 0  22.95619018196054 0.5399259079058234 0  4.206252681960538 0.5399259079058225 0  16.4062953125 2.619594802989763 0  8.9063203125 2.619594802989763 0  9.831233931960538 0.5399259079058233 0  13.5938046875 2.619594802989763 0  10.79389731803946 2.601666745683971 0  24.8437671875 2.619594802989764 0  0.7394694155368845 1.474719373564248 0  12.6563078125 2.655675462355382 0  13.5551333318547 0.5387914664280379 0  21.0937796875 0.4859171912344095 0  7.0313265625 2.655675462355384 0  15.43012708185469 0.5387914664280367 0  29.3285021510026 2.50688009573946 0  3.364841737260364 2.609012230236148 0  1.409985134780835 1.962403800271958 0  0.4688484375 3.141592653589793 0  2.3438421875 3.141592653589793 0  15.5825004096906 1.104619418487569 0  13.70750665969061 1.104619418487568 0  13.71236326961885 2.043433095799237 0  8.755370285008466 2.057910080416815 0  9.022249677435363 1.536570529080364 0  16.25534528500847 2.057910080416815 0  16.52222467743536 1.536570529080363 0  24.92366631105196 2.026154694648643 0  21.18194521815008 1.100185928274085 0  21.87370838766628 2.056380646487345 0  22.14808783840126 1.538048190012078 0  4.33324587117594 2.035741102053015 0  4.006019765784991 1.54521303074963 0  3.409889652758044 1.585268892513827 0  19.9715480549401 2.067492350713148 0  20.28531751018753 1.558528798059689 0  10.61934262455715 2.055363065637101 0  10.90010191449819 1.53822270414762 0  4.380807375442849 1.086229587952693 0  10.00578862544285 1.086229587952693 0  9.725029335501812 1.603369949442174 0  17.50576362544285 1.086229587952693 0  17.22500433550181 1.603369949442172 0  23.13074487544285 1.086229587952692 0  22.84998558550181 1.603369949442171 0  0.4688484375 0 0  29.5312515625 0 0  13.34340475149824 1.54684736138027 0  12.76672660526234 1.618886991242595 0  15.36782956013155 1.636408044451234 0  20.9950359145062 1.640533602249165 0  22.0312765625 0 0  16.58708488403538 0.5075676609978845 0  5.913040115964622 2.634024992591908 0  11.53802136596462 2.634024992591907 0  14.71209113403538 0.5075676609978858 0  22.26565078125 0.5098977902953856 0  29.6019176635082 1.178097245096172 0  19.21086918313511 1.864128986605879 0  26.65602119046449 1.378615467947414 0  5.164249566864894 1.86412898660588 0  7.960906683135107 1.277463666983913 0  26.47164670626602 0.5297273244300663 0  6.916369597670539 2.036755350493144 0  7.12983608140248 1.507383199616695 0  24.56548599955196 1.593532875493391 0  24.00030368480145 1.641709334587738 0  20.01033535803279 1.050372204536984 0  18.1273359429097 2.057216074872408 0  18.39904204572843 1.536303957786078 0  12.51036035803279 1.050372204536979 0  25.62836556249551 1.079897040982236 0  25.95350175423915 1.569236024523328 0  8.702141296318096 1.079298619791324 0  7.732749823512855 2.609012230236148 0  18.98271232351286 0.5325804233536452 0  25.7812640625 3.141592653589793 0  26.01733767648714 2.609012230236148 0  17.3437921875 3.141592653589793 0  20.85770607351285 2.609012230236148 0  15.23272482351286 2.609012230236149 0  5.392406426487145 0.5325804233536449 0  14.5313015625 3.141592653589793 0  22.73269982351286 2.609012230236148 0  17.10771857351286 2.609012230236148 0  18.2812890625 0 0  11.48273732351286 0.5325804233536444 0  9.843817187500001 3.141592653589793 0  9.607743573512856 2.609012230236148 0  23.9062703125 0 0  10.7813140625 0 0  24.14064453125 0.5309446515973335 0  5.93908344535534 0.4542978584934494 0  24.68794272470485 0.4553357117535944 0  28.08728337491464 1.144370519098579 0  7.716168974886271 0.5294864073740819 0  18.96613147488627 2.612106246215711 0  5.156332812500001 3.141592653589793 0  26.76926796992892 1.91725896901098 0  19.25115034100718 1.257971865814588 0  7.961620809777196 1.810259701395937 0  5.123968408992828 1.257971865814588 0  6.126194091007172 1.257971865814588 0  11.75117534100717 1.257971865814587 0  14.66765787767354 1.570796326794897 0  5.389545373259498 2.552687121248888 0  0.4936414300012104 2.59421505214546 0  2.10946796875 2.667245445167741 0  12.54498877329874 2.1195458166069 0  6.797440229523341 1.102848903723741 0  11.78185504428652 1.904896054195289 0  5.605259867305674 1.586112337064355 0  3.685442669291818 0.5172784756274944 0  6.15687379428652 1.90489605419529 0  23.7334084139784 2.108588781464944 0  3.221128960319358 2.099431274963118 0  29.10852116765864 1.326081827808101 0  10.98113167257853 0.6305538595257408 0  14.69945431711977 2.634867314303652 0  18.48110667257853 0.6305538595257421 0  3.2813390625 0 0  0.3995175524482088 
[...]
<PointData  Scalars="f_16-1"> 
<DataArray  type="Float64"  Name="f_16-1"  format="ascii">8.9792682572319693e-01  8.9792590565929042e-01  1.0000000000000000e+00  1.0000000000000000e+00  9.9997523245267117e-01  9.9997526059295205e-01  9.9987611710154312e-01  9.9987624728359514e-01  9.9999358274577643e-01  9.9999357751446805e-01  9.9998712192793082e-01  9.9998713028286201e-01  9.9994960735785121e-01  9.9994956103282373e-01  9.9947957202443283e-01  9.9948043103953055e-01  9.9999747145542139e-01  9.9999747003468986e-01  9.9998216523836847e-01  9.9998218174019582e-01  9.9992371039123051e-01  9.9992376693809626e-01  9.9977349658391257e-01  9.9977344726133965e-01  9.9788834994240183e-01  9.9789985855614416e-01  9.9996511822883805e-01  9.9996516544491287e-01  9.9999079577248562e-01  9.9999078892259341e-01  9.9999574750167275e-01  9.9999575035847188e-01  9.9999886033733554e-01  9.9999886133542160e-01  9.9999475424310535e-01  9.9999231026497393e-01  9.9998490836955967e-01  1.0000000000000000e+00  9.9990435082899853e-01  9.9967175967982780e-01  8.9792697065814397e-01  9.9907404465941141e-01  9.9983644414831341e-01  9.9993866707048562e-01  9.9997909884203418e-01  9.9995841522478679e-01  9.9997081470924498e-01  9.9999821203698491e-01  9.9999667500273859e-01  9.9998913601968675e-01  9.9627891659874290e-01  9.9999917170388986e-01  9.9157587191374919e-01  9.9999945779076305e-01  9.9156741212555910e-01  9.9999945719919758e-01  1.0000000000000000e+00  9.9999748417517853e-01  9.9999744633196064e-01  9.9999665663563742e-01  9.9998224307062422e-01  9.9998209951840777e-01  9.9997900309519927e-01  9.9998483731378596e-01  9.9998717604434106e-01  9.9998707720376867e-01  9.9998484926401188e-01  9.9999360822241135e-01  9.9999354743988766e-01  9.9999227446424999e-01  9.9999227938346635e-01  9.9999473131509808e-01  9.9999472709353776e-01  9.9992406360875730e-01  9.9992321556427144e-01  9.9990387484902710e-01  9.9996528559473929e-01  9.9996496946656166e-01  9.9995821837110133e-01  9.9990389294126547e-01  9.9967028604114783e-01  9.9967012490921714e-01  9.9997072113811769e-01  9.9997068000118206e-01  9.9995827819890537e-01  9.9997902417874229e-01  9.9993841004985773e-01  9.9993845098389755e-01  9.9983577862396156e-01  9.9987676544432669e-01  9.9987511568896525e-01  9.9983569228594649e-01  9.9977448025407045e-01  9.9977829081089076e-01  9.9948291690044055e-01  9.9946958840651945e-01  9.9906946695584253e-01  9.9907020875075803e-01  9.9998909490079713e-01  9.9999083098657215e-01  9.9999075193875064e-01  9.9998908467638825e-01  9.9999576804027834e-01  9.9999572323142116e-01  9.9999665822622785e-01  9.9999820110217763e-01  9.9999820196310896e-01  9.9997534683669453e-01  9.9997513819730099e-01  9.9994975428667654e-01  9.9995024537420074e-01  9.9999917163944496e-01  9.9815898886321952e-01  9.8900872026587328e-01  1.0000000000000000e+00  9.9866265477222882e-01  8.9792620190758188e-01  9.9999854740581351e-01  9.9999854706130742e-01  9.9999956622262742e-01  9.9998871818884960e-01  9.9998536487807621e-01  9.9999650467989465e-01  9.9997957661461756e-01  9.9999250338584000e-01  9.9999454059049175e-01  9.9982914553865254e-01  9.9994102729014211e-01  9.9997151325884248e-01  9.9997175407470396e-01  9.9969608949593591e-01  9.9989887854129211e-01  9.9989969647745214e-01  9.9995687870904992e-01  9.9995728033087994e-01  9.9993613932060721e-01  9.9969993398924473e-01  9.9903635511961220e-01  8.9792729391402359e-01  9.9999683698987540e-01  9.9999495599088772e-01  9.9982642073374728e-01  9.9997841792402908e-01  9.9999203563192207e-01  9.9998442025770473e-01  9.9998877100071470e-01  9.8872317031031609e-01  9.9999953769261496e-01  9.9999801485221840e-01  9.9628710494476769e-01  9.9999800172680986e-01  9.9999873285743968e-01  9.9726290077736301e-01  9.9999902059182821e-01  9.9999000434300722e-01  9.9959256111193184e-01  9.9834407720669283e-01  9.9922134915361804e-01  9.9998999891161289e-01  9.9985837375435183e-01  9.9999524975710852e-01  9.9998602650522639e-01  9.9996199500364136e-01  9.9991486988539036e-01  9.9999706836107982e-01  9.9998357337191046e-01  9.9999298338533960e-01  9.9999417519782030e-01  9.9958971856367484e-01  9.9998072384294590e-01  9.9991492881228983e-01  9.9993161754761883e-01  9.9996817123064885e-01  9.9994469982143075e-01  9.9999623127813442e-01  9.8658803620319602e-01  9.9996201020576436e-01  9.9996792691189740e-01  9.9999158299092916e-01  9.9985856408770668e-01  9.9997712420365847e-01  9.9999961907331891e-01  9.9935492328525133e-01  9.9630499821495877e-01  9.6580722041688982e-01  9.9865617414871266e-01  9.9997775047810278e-01  9.9996884565265987e-01  9.9996888415417651e-01  9.9991174138420003e-01  9.9991736475220583e-01  9.9998022611691939e-01  9.9998112354457713e-01  9.9999631168406145e-01  9.9999173132456043e-01  9.9999275966430745e-01  9.9999314028174957e-01  9.9961449909908873e-01  9.9954759850259756e-01  9.9937255537392389e-01  9.9998967417378026e-01  9.9999024395995795e-01  9.9994262927727706e-01  9.9994596331998031e-01  9.9962284914019750e-01  9.9993431386845155e-01  9.9993002503046058e-01  9.9998407828252811e-01  9.9998329079957471e-01  9.9999439247126676e-01  9.9999405276853981e-01  9.6667659960653329e-01  9.9999973515516150e-01  9.9996667084580504e-01  9.9996283547687315e-01  9.9997690045114107e-01  9.9999143898685694e-01  9.9999294719045695e-01  9.9998131046773087e-01  9.9979660438734952e-01  9.9995262237036064e-01  9.9997401287072551e-01  9.9999328936804677e-01  9.9999977742304602e-01  9.9998817674093587e-01  9.9999780879870259e-01  9.9973099166888857e-01  9.9989148179986065e-01  9.9999766007494184e-01  9.9985361621818414e-01  9.9986271055368459e-01  9.9999596188095685e-01  9.9999537808531624e-01  9.9998974311274036e-01  9.9998570859893632e-01  9.9998636984902023e-01  9.9996094597310514e-01  9.9999695639129327e-01  9.9999723797883155e-01  9.9991051332560421e-01  9.9988450552061003e-01  9.9998767674143396e-01  9.9999707555902217e-01  9.9999728868964199e-01  9.9998357037786056e-01  9.9999120957615539e-01  9.9997632379298040e-01  9.9975356091382905e-01  9.9997309984919058e-01  9.9999389983270870e-01  9.9998293458797127e-01  9.9998602616705456e-01  9.9995206508122447e-01  9.9993162860202756e-01  9.9992805476835578e-01  9.9999525236794529e-01  9.9994434339348870e-01  9.9999552036752648e-01  9.9979825066377137e-01  9.9999607607103269e-01  9.9999884237444137e-01  9.9988385312213424e-01  9.9998764760076120e-01  9.9972880185990254e-01  9.9999789716251430e-01  9.9998825894929211e-01  9.9989155107653427e-01  9.9972650554581610e-01  9.9981119508483673e-01  9.9995464849027316e-01  9.9997383666318318e-01  9.9975357278616139e-01  9.7011209281418398e-01  9.9834803633407931e-01  9.9996122184060776e-01  9.9984814792155008e-01  9.9995494032180332e-01  9.9977274765450475e-01  9.9946331075103412e-01  9.9981312797079180e-01  9.9999508730232067e-01  9.9929604340078271e-01  9.9999948888098800e-01  9.9994682423557657e-01  9.9997396741684286e-01  9.9998654943351939e-01  9.9931602367695271e-01  9.5702426797767670e-01  9.5914147634356894e-01  9.9872646182725733e-01  9.9999825533421582e-01  9.9999624172779944e-01  9.9999931134135311e-01  9.9623883362918075e-01  9.9476770126089897e-01  9.9930080485709449e-01  9.9999784615212650e-01  9.9999905539850309e-01  9.9999887645123198e-01  9.9999916672723366e-01  9.9999935056203137e-01  9.9999575511903571e-01  9.9902376855846065e-01  9.9995112965250377e-01  9.9996526038090783e-01  9.9999081650188171e-01  9.9999155703162601e-01  9.9996804144306561e-01  9.9996193395603894e-01  9.9993159011481492e-01  9.9991461988794383e-01  9.9998067187193418e-01  9.9999416955552300e-01  9.9999295266993882e-01  9.9998355483378998e-01  9.9991457146801344e-01  9.9996186504121676e-01  9.9998603551097198e-01  9.9999525556302582e-01  9.9998996730384804e-01  9.9998997447459070e-01  9.9999853883586587e-01  9.9999916551641310e-01  9.9999853997678967e-01  9.9996808345792842e-01  9.9999621710916076e-01  9.9999973516998064e-01  9.9998065119936386e-01  9.9999156246552745e-01  9.9999417498752174e-01  9.9999621492855784e-01  9.9959079310146204e-01  9.9959128815074993e-01  9.9626460811600304e-01  9.9980819969887169e-01  9.9931810418727762e-01  9.9985803076289337e-01  9.9985794097690528e-01  9.9865348732037207e-01  9.9980816618451085e-01  9.9989131588742919e-01  9.9972865268806776e-01  9.9989121217998456e-01  9.9995415032509760e-01  9.9997720326670247e-01  9.9994439824918535e-01  9.9995419556516085e-01  9.9997306339388681e-01  9.9997723475344114e-01  9.9999784519770207e-01  9.9999707431961693e-01  9.9998813780215978e-01  9.9998814808808489e-01  9.9999527550887857e-01  9.9999977369872139e-01  9.9992388192389714e-01  9.9999881587558104e-01  9.9999803317022029e-01  9.9999851527905836e-01  9.9999977068938750e-01  1.0000000000000000e+00  9.9834273746784730e-01  9.9896428620609301e-01  8.9792610616947777e-01  9.9999837952026205e-01  9.9997236905631437e-01  9.9999837058627872e-01  9.9999870738465901e-01  9.9188900843010663e-01  9.9999710088072991e-01  9.9805316280683287e-01  9.9999764811780789e-01  9.6720690675102428e-01  9.9996512271386739e-01  9.9998744844726406e-01  9.9997326493010330e-01  9.9886733486484136e-01  9.9987860064688849e-01  9.9999270504780280e-01  9.9998006496877212e-01  9.9772227407154990e-01  9.9999416795099649e-01  9.9998355778555603e-01  9.9994222612524741e-01  9.9993479256706108e-01  9.9949399532524796e-01  9.9998560403625858e-01  9.9999272121050697e-01  9.9997992449266382e-01  9.9982294589108855e-01  9.9995633629727187e-01  9.9997201556975390e-01  9.9999927021874380e-01  9.9528377701056081e-01  9.9995636509898689e-01  9.9989820636353777e-01  9.9997789696764028e-01  9.9994274600728761e-01  9.9999687996182895e-01  9.9998864989358871e-01  9.9971172641085482e-01  9.9998570786609609e-01  9.9998425906183341e-01  9.9993532998477230e-01  9.9999182799553332e-01  9.9999437911752287e-01  9.9999509298484757e-01  9.9916495561277430e-01  9.9418465105328946e-01  9.9989810282723068e-01  9.9998865771688050e-01  9.9970262095361950e-01  9.9999931625617766e-01  9.9993751170978851e-01  9.9998467801069602e-01  9.9997817407317957e-01  9.9997199613221377e-01  9.9999194395900459e-01  9.9967910430791607e-01  9.9965895628644852e-01  9.9999762379528201e-01  9.9988888801987186e-01  9.9999466032707041e-01  9.9993050342921430e-01  9.9998464788325758e-01  9.9980166388501701e-01  9.9999647033220440e-01  9.9982451996183874e-01  9.9990176435421385e-01  9.9997107816190567e-01  9.9999144120080186e-01  9.9997691728310523e-01  9.9999674680451922e-01  9.9999464961477169e-01  9.9999943392509061e-01  9.9999976766216070e-01  9.9999241708265296e-01  9.9998091048436710e-01  9.9999305771500302e-01  9.9995833026032221e-01  9.9997934716673331e-01  9.9999830300929871e-01  9.9997343514876680e-01  9.9999853394135352e-01  9.9998895416981215e-01  9.9870376021536778e-01  9.9905202387148762e-01  9.9995795449238467e-01  9.9998902533217604e-01  9.9998794290174908e-01  9.9988741561703054e-01  8.9792659064433988e-01  1.0000000000000000e+00  1.0000000000000000e+00  8.9792714059578094e-01  8.9792688807838394e-01  1.0000000000000000e+00  9.9999661060151901e-01  9.9999484087413792e-01  9.9998800754064854e-01  9.9974219633124528e-01  9.9995354023266236e-01  9.9999954794012580e-01  9.9999481932639478e-01  9.9983527686333917e-01  9.9999217410809782e-01  9.9980613992992551e-01  9.9995366795455376e-01  9.9997011721813278e-01  9.9997861788444664e-01  9.9990148910153143e-01  9.9318011788439720e-01  9.9968140629184465e-01  9.9999608232969273e-01  9.9999128917858737e-01  9.9999810482066165e-01  9.9999911620165638e-01  9.9999632564799201e-01  9.6513711203236041e-01  9.5217847428356361e-01  9.9987203079525389e-01  9.9996343176510938e-01  9.9998248790501720e-01  9.9994893252038553e-01  9.9999895140655259e-01  9.9994000102724356e-01  9.9999774581801437e-01  9.9999809265910078e-01  9.9990810022983612e-01  9.9881070855819343e-01  9.9999863644388254e-01  9.9767384972392514e-01  9.9466484989884418e-01  9.9726443893066075e-01  9.9999121655210732e-01  9.9937778974558134e-01  9.9919274369909172e-01  9.9999602005316068e-01  9.9997639643986846e-01  9.9973858342741950e-01  9.9964996603988809e-01  9.9998930107676209e-01  9.9964563668787199e-01  9.9990660059732162e-01  9.9999654049320319e-01  9.9956157890569364e-01  9.9997002436674431e-01  9.9995938876464252e-01  9.9984277203176763e-01  9.9996880527610477e-01  9.9462981446448473e-01  9.9997563725247973e-01  9.9996658202779232e-01  9.9998124022947177e-01  9.9991809134503595e-01  9.9990737068547186e-01  9.9995942045897812e-01  9.9998937084613593e-01  9.8922338920706432e-01  9.9999083637352126e-01  9.9999978440866466e-01  9.9999909757824290e-01  9.9761302997009871e-01  9.9999878822262600e-01  9.9998685910629570e-01  9.9999552486418330e-01  9.9999728220917750e-01  9.9999736933776762e-01  9.9984563091639955e-01  9.9995980599846646e-01  9.9998946462650884e-01  9.9998615742801233e-01  9.9999906079219925e-01  9.9999766858548600e-01  9.9999061718037452e-01  9.9953168692333849e-01  9.9999025962667598e-01  9.9994494219371421e-01  9.9760346861083282e-01  9.9999374697942833e-01  9.9999399282791956e-01  9.9999400278225203e-01  9.9999362062182173e-01  9.9998315073589250e-01  9.9998317339941012e-01  9.9998227225922398e-01  9.9992924716276821e-01  9.9992936882775385e-01  9.9992423050105883e-01  9.9953451623519984e-01  9.9955815152939254e-01  9.9994717558119361e-01  9.9999752757420235e-01  9.8615592413251152e-01  9.9707362395471577e-01  9.9999345508531212e-01  9.9999350792676334e-01  9.9987427981282384e-01  9.9997544233603675e-01  9.9999829942755181e-01  9.9996978166220496e-01  9.9998147560880102e-01  9.9992188014520222e-01  9.9999649033508120e-01  9.9999597205872959e-01  9.9999024201437936e-01  9.9998522118738664e-01  9.9935585940908045e-01  9.9999198499711550e-01  9.9994590734413058e-01  9.9994661079768110e-01  9.9984368496191411e-01  9.9996709315054866e-01  9.9997656433272863e-01  9.9983040247405131e-01  9.9999954204510888e-01  9.9999565620418374e-01  9.9996059769879542e-01  9.9998700777225369e-01  9.9994899932593806e-01  9.9977847207466786e-01  9.9987181047057272e-01  9.9986193340069285e-01  9.9999024698159344e-01  9.9986782137313679e-01  9.9991691324144349e-01  9.9996298499056935e-01  9.9999683028893105e-01  9.9998535744171402e-01  9.9999541133912584e-01  9.9998636647580830e-01  9.9999679690706300e-01  9.9999821016625812e-01  9.9961760023890933e-01  9.9999546568819997e-01  9.9999973871859216e-01  9.8903074556248605e-01  9.9986812247879520e-01  9.9991750607099028e-01  9.9995991607138313e-01  9.9984593669063071e-01  9.9923442171081345e-01  9.9999846089883027e-01  9.9998961826436539e-01  9.9996696320697132e-01  9.9997526225674360e-01  9.9922599030050463e-01  9.9997060307184371e-01  9.9998217814247670e-01  9.9996359190297512e-01  9.9996680576428487e-01  9.9999220956977919e-01  9.9992793637554878e-01  9.9999120905108563e-01  9.9999037674219116e-01  9.9996671783703972e-01  9.9999077381749635e-01  9.9996306757211895e-01  9.9996082112777884e-01  9.9999363395062379e-01  9.9993655797127456e-01  9.9998449717019355e-01  9.9991931946249191e-01  9.9956329053589066e-01  9.9940316491846870e-01  9.9943974097642674e-01  9.9997231242685480e-01  9.9998117862432401e-01  9.9991059632509260e-01  9.9998705060670134e-01  9.8627424922420359e-01  9.9997962556360520e-01  9.9997837677535018e-01  9.9996922326609017e-01  9.9999252201956779e-01  9.9963360658489242e-01  9.9981745710173586e-01  9.9995426573023116e-01  9.9994152406412540e-01  9.9999773608472664e-01  9.9810107280044724e-01  9.9999694813432549e-01  9.9999458133673247e-01  9.9999712844142974e-01  9.9998128157523036e-01  9.9991831682142940e-01  9.9998691818322261e-01  9.9999185488510545e-01  9.9999320061106767e-01  9.9999316042065955e-01  9.9999307212425026e-01  9.9857027229138340e-01  9.9896707397388795e-01  9.9992309910804322e-01  9.9998219039017322e-01  9.9999982276154220e-01  9.9996353429348606e-01  9.9997336277669435e-01  9.9999926943562223e-01  9.9999719618362326e-01  9.9999723060628387e-01  9.9979125429750071e-01  9.9997888811321844e-01  9.9997796391002092e-01  9.9999691609702679e-01  9.9975329826622472e-01  9.9997483194035686e-01  9.9999505472096206e-01  9.9999071609212875e-01  9.9999022546159699e-01  9.9998969588849973e-01  9.9998972848469381e-01  9.9999582734227133e-01  9.9986002387384443e-01  9.4662657714545762e-01  9.9736908945475533e-01  9.9380337122442675e-01  9.9999441885698470e-01  9.9999435529722924e-01  9.9998011754684424e-01  9.9979681473808679e-01  9.9940826852535913e-01  9.9996708365260545e-01  9.9999262218652263e-01  9.9640345805213604e-01  9.9997387955553874e-01  9.9999436682935106e-01  9.9999509339827575e-01  9.9999504827420205e-01  9.9999371223707356e-01  9.9998248840382020e-01  9.9992548481788890e-01  9.9963301765330537e-01  9.9996511406982547e-01  9.9999986903292548e-01  9.3099770750769117e-01  9.3120267071737184e-01  9.9998400546790411e-01  9.9993397917364979e-01  9.9832239204697759e-01  9.9999901579781514e-01  9.9999391542923710e-01  9.9998352913875610e-01  9.9974248754536332e-01  9.9998810962229712e-01  9.9998413710383460e-01  9.9998396468313100e-01  9.9993003358765442e-01  9.9999192118245905e-01  9.9988124763812147e-01  9.9997776195069921e-01  9.9996939617151548e-01  9.4071693877309115e-01  9.9997471039546759e-01  9.9916754741567082e-01  9.9993892813958962e-01  9.9996886938323304e-01  9.9998495742338334e-01  9.9994675154419721e-01  9.9975689527479017e-01  9.9999601726448173e-01  9.9999649413956626e-01  9.9939677008030081e-01  9.9947298893442249e-01  9.9998653779510471e-01  9.9993919830191746e-01  9.9994257118143726e-01  9.9999541045526386e-01  9.9999489147003728e-01  9.9997653000110964e-01  9.9962034263474286e-01  9.9994240498437803e-01  9.9999890942526148e-01  9.9991112481045819e-01  9.9963161564394021e-01  9.9999788163862013e-01  9.9999128850866159e-01  9.9955305180614995e-01  9.9997421199445746e-01  9.9997520159331887e-01  9.9997627288876811e-01  9.9994238725125528e-01  9.9971046975530520e-01  9.9993456220667809e-01  9.9661797412002751e-01  9.9998568086128203e-01  9.9999739364335605e-01  9.9998804547262221e-01  9.9988399870522759e-01  9.9988968654947963e-01  9.9999274734378241e-01  9.9991097774050630e-01  9.9991183025193398e-01  9.9998017421393870e-01  9.9997930448440486e-01  9.9985128959278002e-01  9.9984919672865769e-01  9.9999273902624486e-01  9.9996540439034431e-01  9.9999781399280951e-01  9.9999239296075670e-01  9.9999894263761202e-01  9.9999830501495235e-01  9.9998042347273353e-01  9.9977881673365765e-01  9.9977963674623616e-01  9.9997448093493957e-01  9.9995197341201014e-01  9.9995041289818065e-01  9.9998168268262044e-01  9.9995513102651834e-01  9.9997274880769582e-01  9.9998756052721660e-01  9.9999961006063409e-01  9.9999727623240342e-01  9.9999713359845266e-01  9.9998804630255367e-01  9.9999405116893036e-01  9.9999140435008516e-01  9.9993089864472096e-01  9.9998343982061932e-01  9.9974089301977598e-01  9.9988990842966463e-01  9.9997682505386287e-01  9.9995372648687697e-01  9.9996329225120584e-01  9.9999742792750468e-01  9.9998720450755918e-01  9.9999742872085329e-01  9.9998240231994240e-01  9.9972655204859540e-01  9.9989260990713902e-01  9.9994991199584715e-01  9.9977537554603402e-01  9.9995470149277377e-01  9.9998826833891463e-01  9.9993222820279959e-01  9.9999423152436206e-01  9.9996495837309918e-01  9.9986019342165877e-01  9.9997741523347183e-01  9.9999163714595929e-01  9.9999523766001019e-01  9.9999537892890566e-01  9.9999577531636019e-01  9.9999896983968195e-01  9.9998642461228826e-01  9.9999752451064938e-01  9.9999758012611384e-01  9.9999788217516783e-01  9.9992474873342863e-01  9.9993925462330058e-01  9.9993707690063116e-01  9.9987108452788032e-01  9.9998976388356897e-01  9.9998920271032710e-01  9.9994961535109861e-01  9.9989168280699237e-01  9.9998826901116289e-01  9.9987837509753930e-01  9.9999072558953706e-01  9.9949636101371198e-01  9.9981539727488433e-01  9.9999568198517830e-01  9.9999313603343598e-01  9.9999800728004939e-01  9.9990574040333768e-01  9.9996925075079501e-01  9.9999616645326694e-01  9.9999596547776