<?xml version="1.0"?>
<VTKFile type="UnstructuredGrid"  version="0.1"  >
<UnstructuredGrid>
<Piece  NumberOfPoints="5836" NumberOfCells="11385">
<Points>
<DataArray  type="Float64"  NumberOfComponents="3"  format="ascii">0.001 3.141592653589793 0  0.001 0 0  5 0 0  5 3.141592653589793 0  2.5005 0 0  2.5005 3.141592653589793 0  0.001 1.570796326794897 0  5 1.570796326794897 0  1.744328935841636 1.570796326794897 0  3.372164467920818 1.387019628454077 0  1.25075 3.141592653589793 0  1.25075 0 0  3.75025 0 0  3.75025 3.141592653589793 0  0.001 0.7853981633974483 0  0.8726644679208181 2.159844949342983 0  5 0.7853981633974483 0  4.110783492749637 2.145880273733602 0  2.629718416736009 2.11198169170048 0  0.9757105766754856 0.9493683385492028 0  1.875625 0.6665953298298802 0  4.094692642985697 0.838931775524455 0  1.811964048783743 2.454993645358079 0  2.718416116980205 0.8304579382926163 0  0.001 2.356194490192345 0  5 2.356194490192345 0  3.125375 3.141592653589793 0  3.370278107335174 2.12774465709983 0  3.407809948873701 0.6307718945191717 0  0.625875 0 0  4.375125000000001 3.141592653589793 0  0.625875 3.141592653589793 0  4.02200681037178 1.493399969331058 0  2.733210976613452 1.475313309967093 0  1.875625 0 0  3.125375 0 0  1.875625 3.141592653589793 0  4.375125000000001 0 0  0.6618939729948865 1.532277976571489 0  2.216128066190279 1.164579292933601 0  4.568985023925595 1.178097245096172 0  2.990364292495897 2.572476583159648 0  1.206736308221193 1.449672236162574 0  3.729894867765515 2.571094094157913 0  5 1.963495408493621 0  4.49283968376527 1.761617939817643 0  0.001 1.963495408493621 0  1.258222596999737 2.575037834477563 0  1.423267850985224 2.035157097720842 0  2.353711739799377 2.600256330218679 0  2.258254921520941 1.724853346368984 0  4.239737244320467 2.64459051267131 0  1.490729988496748 1.015039829581286 0  1.291355303417768 0.5262883775023036 0  0.5118468689298171 2.59103599061827 0  0.5381348399283925 0.5714717817523929 0  4.529956913021803 0.5180925391228958 0  0.001 1.178097245096172 0  0.4933532362793825 1.06561364773441 0  2.980008822173782 0.4437068820987302 0  4.564040044964604 2.214472046556009 0  2.1880625 0.3332976649149402 0  3.097669515831832 1.756685504671727 0  3.64504980918528 1.758079485664415 0  5 2.748893571891069 0  4.062687500000001 0.3618969262287758 0  3.747596871049105 1.131653377760572 0  0.4623292595625226 1.948479940943258 0  1.876525673039401 2.005369644323116 0  3.013322024093855 1.146289342619579 0  0.9383125 3.141592653589793 0  0.9383125 0 0  1.5631875 3.141592653589793 0  2.299724326655775 0.7456423464322348 0  3.360528606353133 2.78523520440742 0  2.58367865384418 0.3910630250461126 0  1.5631875 0 0  0.001 0.3926990816987241 0  0.001 2.748893571891069 0  5 0.3926990816987241 0  5 1.178097245096172 0  1.086676949507341 1.82685680356651 0  4.60401488993827 2.812299555522296 0  2.150790906480448 2.274198669211004 0  3.389517740021425 1.008873633253642 0  0.9060078524421483 0.4032280990394096 0  2.8129375 3.141592653589793 0  0.8840246226530178 2.535911368032699 0  3.00012263216635 2.114020142761075 0  3.739078275387188 2.19612130235102 0  1.863660018950087 1.040180242829157 0  0.3134375 3.141592653589793 0  0.3134375 0 0  1.71940625 0.3332976649149401 0  1.71940625 2.809826338093491 0  2.1880625 3.141592653589793 0  3.4378125 0 0  3.684455024648954 0.3726202024607393 0  3.740329771701915 0.7708905085124054 0  2.65671875 2.808662874247235 0  0.3048839315870346 1.374446785945534 0  3.082988751730189 0.7909050604577283 0  4.6875625 0 0  4.062687500000001 3.141592653589793 0  2.8129375 0 0  2.035845241311077 2.702881016350061 0  0.9032842963817411 1.286305097374828 0  4.656931443943285 0.8417404232452302 0  3.906468750000001 2.850406428088625 0  4.075268021561086 1.168044833638658 0  4.154826701789472 1.807608096053753 0  0.7376138509979864 2.831363188135275 0  3.417139974931288 2.457257099515083 0  1.06505708415104 2.839562667031707 0  2.688773790131325 1.153735423983879 0  2.58958371792996 1.778711942594736 0  0.5593097944666217 2.264192307459291 0  3.28159375 0.2968457090592794 0  2.666931527330933 2.469336624359783 0  0.7647372942520705 1.837535961415519 0  3.70785388234934 1.446754001870704 0  4.35994157846091 1.447547110640418 0  4.684855248990567 1.483805718821885 0  3.4378125 3.141592653589793 0  4.062687500000001 0 0  2.1880625 0 0  4.6875625 3.141592653589793 0  1.388506397176766 1.715230354709177 0  2.058141090202966 1.458179071326694 0  3.070101627302362 1.449469115687868 0  0.2382998306244354 2.159844949342983 0  0.46965625 0.2684865872338308 0  1.660635750433859 1.27324811592463 0  4.710636523087218 2.504919851755464 0  2.456821314060848 1.349646953750461 0  1.582456533901248 0.600746070619217 0  0.2913149611835811 1.68677703482314 0  2.952632609140318 2.872928602509807 0  1.40696875 0.2526577052064039 0  0.4465891540462193 2.878548116125077 0  4.37527534825199 0.9477724540847678 0  0.8157857623840706 0.6922610790912749 0  0.2339672372759008 0.5890486225480862 0  1.40696875 2.865371450453934 0  1.661972266019093 2.204009076747114 0  3.954395566118488 2.388993459516827 0  3.894480326891906 1.945714178958493 0  1.645650275631365 1.838207981031831 0  1.18413580065407 2.257220888381898 0  1.548247055401025 2.57569145433179 0  0.2151674391680265 0.9817477042468103 0  2.265018788502349 2.869128778975153 0  2.472037014020185 0.9708644072188632 0  0.2201390667860253 2.552544031041707 0  2.159725955897428 1.990762738532558 0  2.424684837438016 2.329914111324133 0  0.9470090036940362 1.574699965832985 0  1.16373328256936 1.166037360402626 0  3.632248652982847 2.828292292695356 0  3.371573722026141 1.673326857289767 0  4.707686712460228 1.959862759354065 0  4.353891189210047 2.005529706156236 0  4.53134375 0.2354960611603866 0  4.793618384262454 0.6013835225941747 0  4.316254439634073 0.6838433048485081 0  3.158356476421106 2.346720257029027 0  4.310144707635783 2.360357742420227 0  1.977531119533165 1.727089626305559 0  1.132400266943696 0.2477999008009941 0  2.815979921821976 1.920499238115509 0  1.253014671842182 0.8269693764043617 0  4.166346021978444 2.898482724557021 0  2.102795980802607 0.9241555505920098 0  0.3983861428047167 0.7937194419178162 0  3.878707442611234 0.5484224308428085 0  1.689329196122621 0.8476128063925936 0  1.472939027339611 1.462449280474622 0  1.053027394525063 0.6077184478624089 0  0.2111129885597887 0.2392286356697121 0  0.001 2.945243112740431 0  5 2.945243112740431 0  5 0.1963495408493621 0  0.7164249568418963 0.9323566059557501 0  0.6452580085176129 1.274518934946079 0  4.752258506463305 0.3540857279977197 0  4.321538750307058 1.201939062382618 0  4.317797585399801 0.3757497292349336 0  5 2.159844949342983 0  4.467927097329465 2.550278830878909 0  0.7192738191602124 0.2340352272941507 0  2.886042830330278 2.340924005038012 0  5 1.767145867644259 0  2.416054785699098 1.968661049760067 0  1.434989923394 2.337798018450736 0  4.784492511962798 1.054769494787296 0  3.906468750000001 0.1809484631143879 0  4.72992469364306 1.720220223430861 0  2.03184375 2.950369388035027 0  2.96915625 0.1944856893774727 0  3.938337198945431 1.713944627595618 0  1.953734375 0.2398695610149013 0  2.884454612783137 0.6609196756160753 0  3.177884155764348 0.5738876704114582 0  0.2318413500286279 2.786066165203608 0  3.998548139817969 2.626775128842682 0  0.523424275835419 1.721828762770965 0  0.6650212894056632 2.058968421868705 0  0.2307347275445842 1.927417727837138 0  1.90053743179688 1.277264627613732 0  3.450959814944663 1.90076394609277 0  2.913620961370554 1.618355908466618 0  3.190644651313419 1.974048014462424 0  2.53795955112793 0.6454380972804046 0  2.342020467863792 0.5128974641932135 0  2.109169154363902 0.5907976082225409 0  4.781499655528076 2.286933996869574 0  4.105998072595797 0.588613880638667 0  2.34428125 0.1666488324574701 0  1.891748262994726 2.237002670384382 0  4.218906250000001 0.1684140367092414 0  3.888770717133383 1.309516004851826 0  3.928711741069383 0.9942651572470561 0  3.522546998136565 1.204449571440098 0  2.65671875 0.1711499666036197 0  2.450771743144775 1.586591166135532 0  3.672406115840737 1.981320093136813 0  1.39405704793621 1.235254138413166 0  3.503803780261876 0.2242576183553675 0  4.396358063860342 2.912155019248943 0  0.3878482978396395 2.406161387495983 0  2.146771278281415 2.502872632956168 0  3.224829457076863 2.592937743738043 0  1.194548334841202 2.028645750090525 0  4.796549568991731 1.283657312444328 0  1.902095881175879 0.4509290615657567 0  2.847728075086812 1.005312699225733 0  2.891198373923118 1.326067435717893 0  3.190487898210527 1.270016399524016 0  3.527248767374533 2.641293744681002 0  3.175956072088606 2.919204700843715 0  1.474353042770958 0.7941126792220985 0  0.001 1.767145867644259 0  3.521426039089352 0.8257618841641062 0  0.7623948294687227 2.351380749313823 0  2.802198299203688 0.3266029201136524 0  4.780524186649787 2.942761275337112 0  3.482874584355626 0.4339064978390624 0  3.638061706002379 0.5821834706644642 0  3.622044058220398 2.380853883959895 0  4.208513455056838 1.599737584720417 0  2.248622371342607 1.371371118755695 0  0.4327161892969158 1.536460241139815 0  1.08230879438763 2.448501654658664 0  2.789761112649419 2.642850266660617 0  3.519796068237937 1.530478464827104 0  2.301460098719642 2.137089573047629 0  0.9348387289566681 0.2026297926651917 0  0.7011733946959257 0.441655550890254 0  2.715989655692792 0.5461395299929638 0  0.3112347019696221 1.166397973152384 0  0.624037921217757 0.7535158474827059 0  4.789834448602464 2.704573371099617 0  5 2.552544031041707 0  3.170361076492329 0.9925534394739536 0  0.8359172966301343 1.095571636908526 0  4.174814630313952 1.351377834651264 0  0.3229891183733109 0.4075761494334211 0  2.474346518743742 2.926205095877385 0  2.65671875 3.141592653589793 0  1.135910075767978 1.63482793376564 0  0.9970293755202875 2.00450734375651 0  0.2005763627196343 0.7842496364034361 0  5 0.9817477042468103 0  5 0.5890486225480862 0  0.001 2.552544031
[...]
<PointData  Scalars="f_16-1"> 
<DataArray  type="Float64"  Name="f_16-1"  format="ascii">-9.5401228302856397e-02  -9.5444638798709444e-02  0.0000000000000000e+00  0.0000000000000000e+00  -4.4068775930586612e-03  -4.4078363412209812e-03  -9.5409638069867228e-02  0.0000000000000000e+00  -8.4161932644999538e-03  -2.0891514285101254e-03  -1.3845938049166326e-02  -1.3847967286700343e-02  -1.4355020216867773e-03  -1.4353123486454485e-03  -9.5430507969264125e-02  -2.2426013527477834e-02  0.0000000000000000e+00  -9.2613656378976665e-04  -3.9584139073983128e-03  -1.9403768608356391e-02  -7.4778953128162582e-03  -9.4684068770988178e-04  -7.9167405678317298e-03  -3.6789075877300386e-03  -9.5402383846790270e-02  0.0000000000000000e+00  -2.6095563715491593e-03  -2.0928096655407295e-03  -2.0210644857795480e-03  -3.4020000726000213e-02  -6.1027965269210959e-04  -3.4048946096473055e-02  -1.0421053251152463e-03  -3.6337318921519143e-03  -7.4823420876181925e-03  -2.6095123154652199e-03  -7.4831589907381497e-03  -6.1048558312714197e-04  -3.1743557062361670e-02  -5.5764186600517542e-03  -4.0169092802506040e-04  -2.9292207022275042e-03  -1.4551722518046144e-02  -1.4654795983247528e-03  0.0000000000000000e+00  -4.8106356347556742e-04  -9.5409971954456371e-02  -1.3726012977679274e-02  -1.1494808618935886e-02  -4.9730119897237381e-03  -5.3832717833100759e-03  -7.6638014949614007e-04  -1.0734554100133143e-02  -1.3230246495845562e-02  -4.3514290847666302e-02  -4.0824591081201088e-02  -4.4199439675518998e-04  -9.5408643884953445e-02  -4.5513691110472015e-02  -2.9554927527356335e-03  -4.0657137532017120e-04  -5.7109934644730687e-03  -2.6709136796481412e-03  -1.6016757298484346e-03  0.0000000000000000e+00  -9.8833410315572246e-04  -1.4377843025292396e-03  -4.8908498643437236e-02  -7.4715303891485117e-03  -2.8722180357505624e-03  -2.0433876889724381e-02  -2.0441878748823871e-02  -9.9929223430215031e-03  -5.2004973251492505e-03  -2.1122010490791186e-03  -4.1125936083327751e-03  -9.9986157652970781e-03  -9.5454356855000436e-02  -9.5396836843019334e-02  0.0000000000000000e+00  0.0000000000000000e+00  -1.6793577560175663e-02  -3.6601694046018541e-04  -5.8926637735508642e-03  -2.0555110891527736e-03  -2.1384330231102752e-02  -3.4042472846451334e-03  -2.2067265103580765e-02  -2.9050141285639330e-03  -1.4510830581744008e-03  -7.5557344220876206e-03  -6.8300508393961595e-02  -6.8364190616326162e-02  -8.6150732381647718e-03  -8.6150914453592201e-03  -5.7142038986059155e-03  -1.9664905745159691e-03  -1.5379683101991656e-03  -1.4491216260615698e-03  -3.8723983873319126e-03  -6.9421755374651492e-02  -2.7050794018417968e-03  -2.8415407859119698e-04  -9.8948393830103711e-04  -3.4036969602281577e-03  -6.5005771938192172e-03  -2.1450586073272316e-02  -3.1324059384044622e-04  -1.2019164789305646e-03  -9.7183403352395963e-04  -8.7027474318226311e-04  -2.7795250240422262e-02  -2.0033988912010465e-03  -1.7267410324210510e-02  -3.7703448673038881e-03  -4.0922473883818096e-03  -3.9012610403051061e-02  -2.2701468220648639e-03  -3.8393474646044382e-03  -2.6545176553269940e-02  -1.5000966808537057e-03  -6.2647797268321616e-04  -2.8615467145291735e-04  -1.9658122096957676e-03  -9.8958119667614912e-04  -5.7125429632043194e-03  -2.8404909461971840e-04  -1.1918736569851809e-02  -6.3755905549070964e-03  -2.7352920335981406e-03  -7.7395269147885568e-02  -4.8131981440749094e-02  -9.0990594538150216e-03  -2.6127369358839599e-04  -4.5655196478767866e-03  -9.8064114632648233e-03  -7.1217400556464014e-02  -3.0251995423950045e-03  -1.1694084424891307e-02  -5.0847222693651196e-02  -6.0927452780873566e-04  -2.4472307930935574e-02  -7.7864725275527777e-02  -1.1694569324672784e-02  -9.0873267619465160e-03  -1.1342446025216682e-03  -1.2188502724552700e-03  -9.2301918966396189e-03  -1.4940534912472079e-02  -1.0139641330469230e-02  -7.9902264810282120e-02  -5.3545098792612414e-03  -4.5085404226520498e-03  -7.9466770473531650e-02  -5.8487472079596908e-03  -4.6892302864154876e-03  -2.0174001340299445e-02  -1.5301120148019353e-02  -1.6232497887882107e-03  -2.0902386620520871e-03  -2.6390272293348602e-04  -6.3330489774067597e-04  -4.4050495971053043e-04  -1.8283193666825118e-04  -6.7624405881846605e-04  -2.5331841059530479e-03  -6.8321878382517770e-04  -6.8353629139516030e-03  -1.5890931579404684e-02  -3.3922284087396595e-03  -1.3807655763334111e-02  -8.5599720392038237e-04  -6.1375197945456317e-03  -5.7125399920391264e-02  -1.2414164148181392e-03  -8.8579369860410651e-03  -1.0926531097424587e-02  -1.7524323990283537e-02  -8.0224704707824446e-02  -9.5393902165578331e-02  0.0000000000000000e+00  0.0000000000000000e+00  -2.8792669777046490e-02  -3.2780942425924241e-02  -2.2144782119381688e-04  -6.7033180934836060e-04  -6.7483304632721920e-04  0.0000000000000000e+00  -5.0760150175127691e-04  -2.8687525957975232e-02  -3.1989832750837135e-03  0.0000000000000000e+00  -4.7221007308692903e-03  -1.1358804917627452e-02  -1.9129505644048338e-04  -1.2019857432495683e-03  -2.4256864973967601e-04  -6.5235898559392351e-03  -2.9828968647939384e-03  -1.1565550530186920e-03  -6.9806442963151680e-03  -3.2039086432947258e-03  -2.4901717882377357e-03  -7.8124579653771883e-02  -1.0736895769157828e-03  -4.2296043841911074e-02  -3.1573460660766058e-02  -7.8222135176706509e-02  -7.3120247983020185e-03  -1.9399986722914474e-03  -3.1257056279714755e-03  -2.4619687127330229e-03  -4.2705042135097442e-03  -5.0211553100358661e-03  -6.1037057736601256e-03  -1.9409002491921606e-04  -9.3210619235605332e-04  -5.0123295047898343e-03  -7.3701344762069302e-03  -7.9175383455846321e-04  -1.2269748969906346e-03  -1.1700095546109575e-03  -1.8110460876299298e-03  -3.8724939760646179e-03  -4.5882572618311497e-03  -1.5569784258915216e-03  -1.1847381419784786e-02  -1.8447597537676536e-03  -5.8595325044089736e-04  -5.8509418799249750e-02  -5.9129330852954291e-03  -2.3887715216165868e-03  -1.4755886542849178e-02  -1.8002982721961096e-04  -7.3031122558168300e-03  -3.3035038894547019e-03  -3.1849200900043867e-03  -2.4623445590799082e-03  -1.8026672924272647e-03  -2.4947273632417361e-03  -1.0911240615280871e-02  -9.5411437074900185e-02  -1.8126917185247269e-03  -2.6662739553365407e-02  -3.4322467240709251e-03  -1.9509785062464709e-04  -1.8819177906840890e-03  -1.6135063022887067e-03  -1.6401302728892703e-03  -8.0395875510196242e-04  -5.4268799520414022e-03  -5.2646085314120517e-02  -1.6894954599303114e-02  -3.4676221069245483e-03  -1.8156112250580767e-03  -5.1927394521831564e-03  -2.0521444761935619e-02  -2.9624298386579383e-02  -3.6867273726869172e-03  -6.8611573051838848e-02  -3.4174839929273330e-02  -1.8639876854476331e-04  0.0000000000000000e+00  -2.5066120411461868e-03  -2.3720255017472318e-02  -8.4538207575673107e-04  -6.7076878909458723e-02  -4.5012297670672923e-03  -3.8746087549844030e-03  -1.5814985044987979e-02  -1.8851862543972683e-02  -8.1320841031452415e-02  0.0000000000000000e+00  0.0000000000000000e+00  -9.5399017352958027e-02  -9.5448587689255918e-02  -9.5447319088258251e-02  -9.5404661980777683e-02  -9.5417703058463268e-02  -9.5408514269819431e-02  0.0000000000000000e+00  -1.7043317218089420e-02  -2.6739426701977700e-03  -8.1638055123800568e-02  -1.0976701176958913e-02  -9.4462796202060377e-03  -2.1442395692756237e-02  -9.8959417013953707e-03  -9.0070493042700779e-04  -1.5616523262253369e-03  -4.7354960744435655e-03  -2.2390943821030559e-03  -1.4858372266529599e-03  -3.0060855031913736e-02  -2.3473920250870438e-03  -4.6298957278809400e-04  -1.1822128725898222e-03  -1.7455763361666410e-03  -2.4724368254953363e-03  -8.9899081489302705e-03  -7.4728152719523606e-03  -6.4729169904323772e-03  -8.2678150510533501e-04  -5.2756048755001408e-03  -4.4140433853953154e-04  -3.3950338710081194e-03  -2.8891796681393880e-03  -2.1608064089905388e-02  -8.1748989147861537e-02  -1.7349851980666311e-04  -5.4026605987528330e-04  -1.8982229684085588e-03  -1.2916638145720182e-02  -1.6760333311981852e-02  -1.2542355769574909e-03  -6.6899128148470502e-03  -8.1009242230400472e-03  -9.7414855661555229e-03  -4.2192371678504452e-03  -3.4961652397941757e-03  -8.5368962053506501e-03  -8.6189937943337448e-03  -7.7066215035885384e-03  -9.8043972473189373e-03  -9.5404566717789772e-03  -6.5661475941198181e-03  -1.1156096337596190e-03  -8.2602256221696119e-02  -8.4865816763063748e-02  -3.5196378713965122e-03  -1.3187136990550919e-02  -3.7170655616637414e-03  -5.0150367317644655e-03  -7.0543734046771766e-04  -1.8668828074036810e-02  -4.3451378071601921e-04  -4.6164060056774342e-02  -1.4191858342924069e-02  -1.4103855422468389e-02  -1.2893246749558936e-04  -5.3008188279601246e-03  -1.9040996071545825e-03  -8.3776624290440079e-03  -1.2797401062526529e-03  -2.3045958697756174e-03  -1.7117717159590862e-02  -1.3482187117911149e-04  -8.0142634777915812e-03  -1.6654388176278359e-02  -4.0594975364313771e-04  -1.4127861721107364e-04  -3.5362826049123463e-04  -4.7647347353839868e-03  -3.1341836072603974e-03  -4.7599298260239051e-03  -2.6366388725835712e-02  -1.6964537098239252e-02  -3.1743597698186431e-02  -2.2719946635474872e-03  -6.5332825248552917e-03  -6.3007932178595197e-02  -6.6048058856506677e-04  -8.4069710710292229e-04  -5.1984430563840802e-04  -5.9954823589923481e-04  -2.4031181949027654e-02  -3.5749037394621380e-04  -2.1272703581647952e-03  -4.1352686370925172e-02  -3.7903951608622341e-04  -1.6887689423009757e-03  -5.8038583010597437e-02  -1.6886770423595742e-03  -1.0833022127057522e-02  -3.9819478902097241e-03  -4.1094127163964758e-03  -4.6916058530846834e-03  -2.1885363559773496e-03  -2.5579435554220729e-03  -2.5577884720883338e-03  -2.2715992223241040e-03  -6.0571290282870486e-03  -1.8866411607758489e-02  -6.2736713695088452e-03  -2.5841261108952768e-02  -1.4196098765921047e-03  -1.2031286045663511e-03  -6.9744558277666339e-03  -7.5380924038051774e-03  -5.6624559971687272e-03  -8.7851657428226993e-04  -1.2447878749302380e-04  -6.0628237988968776e-03  -7.4492771253942816e-03  -1.3764150877816172e-03  -4.5442211212743961e-03  -4.4028932098553958e-03  -1.2915725704912800e-03  -1.0492478307370216e-03  -3.9613179795679250e-02  -4.3956439326053351e-02  -3.7669100751919718e-02  -3.5186421960540192e-02  -4.8149849000305507e-02  -4.5208468872755632e-03  -5.1921597836553715e-03  -4.4874416280667678e-04  -3.3154142503924997e-04  -2.7059842879515285e-04  -1.2492727459736020e-02  -1.3968098293983166e-02  -1.1741364096099596e-02  -1.0006356639252957e-02  -1.5922777180959104e-02  -1.7892924019988069e-03  -1.2588274709643391e-04  -3.3553237951141561e-04  -3.9425453490856913e-03  -3.7820846007623585e-03  -1.2480526810351663e-02  -3.2915740040571598e-03  -2.8842024053092625e-03  -8.4777665117393111e-02  -3.0459729090023233e-02  -3.4515966165144678e-02  -2.0861047166911843e-02  -1.2614604527240503e-02  -1.3579818803993020e-02  -2.5812262856601230e-02  -6.6288671733555618e-03  -7.9232257733479264e-04  -1.0223049622366693e-02  -6.0052756956202635e-04  -2.9847719138517137e-03  -1.0001965468337485e-03  -3.0843498438014563e-03  -8.5297578730921572e-02  -1.0592077138867752e-02  -1.5612086332012396e-03  -2.1973457331380952e-03  -1.1868291855419118e-03  -1.5717803438125414e-03  -1.1700555524172528e-02  -3.3673582292128557e-03  -2.1142217322398923e-03  -1.6645674200403138e-02  -1.6919336621423853e-02  -3.3991401612089231e-03  -9.8961306663820393e-04  -6.2716160068829296e-02  -4.4078264272492283e-03  -1.2032607442459451e-03  -3.8744277035799306e-03  -5.0147286825319064e-03  -1.1697925798641847e-02  -4.8103496727380207e-02  -8.5295322685089547e-02  -8.6191487334009772e-03  -6.5273897999351673e-03  -6.5271171353344986e-03  -1.3727499018777512e-04  -7.9257439531584353e-04  -2.9843521374898958e-03  -4.4143312355218549e-04  -1.3729622859494448e-04  -1.4088384296452752e-03  -8.5900614792617583e-03  -6.3371743320151108e-02  -3.7262361634077347e-02  -4.6974795159836477e-02  -7.0437409903528379e-04  -6.3503296018718276e-03  -9.2845333184749541e-03  -1.2635485844249441e-04  -2.6523450039337652e-03  -2.8448604893763361e-02  -7.4281147980876294e-04  -6.5230510399992017e-02  -8.7263196202641641e-02  -4.2174512125102426e-03  -3.9742986983199950e-03  -1.4038015727887265e-02  -2.0782957986335846e-03  -2.8468482808232062e-03  -2.6887729138213048e-02  -8.7930617453589419e-02  -3.2968187476607605e-04  -5.8946137046318695e-02  -2.8041477739537348e-03  -2.8026500502639690e-03  -1.7682725889922320e-02  -3.4004381308778840e-03  -3.0438391388583473e-02  -2.4126021643152529e-02  -2.0991613615442464e-02  -1.4854772216691077e-02  -7.4554737371332412e-04  -5.4197770966315291e-04  -4.5540304799983068e-04  -8.1328261074024785e-03  -1.2273270395581600e-03  -9.4423330080072882e-03  -6.0562050745186242e-03  -2.1927429500810504e-03  -4.3847202691951026e-02  -1.3531460768152698e-02  -1.3797379815567903e-03  -1.1736606624045621e-02  -2.9527805952096964e-04  -6.3892343208021590e-02  -1.0421710541174828e-03  -1.0593272553764020e-03  -8.8955347040389904e-02  -1.0155556647260774e-04  -9.4829130181704199e-05  -9.8572412643904293e-04  -3.2118074846190438e-03  -1.0980635197574794e-04  -5.5996264380871630e-04  -7.2417976588766354e-04  -8.2709289210527257e-03  -8.3885485672723047e-03  -3.9386564218263392e-04  -1.3420040899830789e-03  -2.1224389627221521e-02  -1.7748517357079547e-03  -1.3661010335521951e-03  -6.3105949811182144e-02  -8.9060512591681282e-02  -5.1074179057970853e-03  -7.2414001311457016e-04  -2.3690867499826015e-03  -8.4519597509958308e-04  -2.7001355153786915e-02  -7.3770840488307206e-03  -5.6469362557347875e-03  -3.0466299903943971e-03  -1.1395484257869454e-03  -3.6081805642096440e-02  -1.0247350728033104e-03  -1.2606267374417051e-03  -1.0541129339294737e-03  -1.7085340525638360e-02  -2.4795940322954572e-02  -1.2060881738472988e-02  -1.3855867190867982e-02  -1.8157633341272553e-03  -1.6519342960638805e-03  -3.9818420640506404e-04  -8.1161034776974714e-03  -4.1530076360641087e-03  -8.2650153214462105e-03  -3.8021919147480563e-03  -5.0163376567231655e-03  -4.1589002463952116e-03  -4.1153596227512810e-03  -3.2766931154680763e-03  -6.0497929733353351e-03  -5.7657775857670353e-03  -3.1683926174513492e-04  -2.7417252006081971e-03  -2.6297250885650280e-03  -1.2466796045309788e-04  -8.9480212839045614e-02  -5.8447566988724658e-04  -8.9541941237200523e-02  -8.9418917949198151e-02  -6.9103962466535562e-03  -8.6849029043530604e-02  -2.0468821067504451e-04  -5.2539407333975236e-03  -8.8237535480387513e-02  -2.1443844630569499e-02  -5.8378796020120936e-03  -4.2941775039541906e-03  -1.2182929863010391e-02  -1.6791566777273261e-03  -1.0079101735828737e-02  0.0000000000000000e+00  -2.2753562924463337e-03  -1.2255523843967775e-02  -8.8211043675630735e-02  -2.7407181066039228e-03  -2.0700330236631376e-03  -2.3789136805261084e-03  -1.1288393798614460e-02  -1.5808386791047681e-03  -1.4012255627446008e-03  -1.8590672487485374e-03  -2.9323841218681706e-03  -1.8451972802581075e-02  -5.8566932796755278e-04  -4.5255010363993813e-03  -2.1908203978209628e-03  -5.8122252364581342e-03  -1.7809771862346932e-03  -1.0435262260430586e-02  -5.1239478625336758e-03  -2.2843866892717033e-03  -3.5517575776463552e-03  -2.3911865840480265e-03  -4.8389757606101518e-03  -3.6772128119195806e-03  -3.7326136162476949e-03  -9.6415099438095560e-03  -3.5658486688497247e-03  -3.1528420575856202e-03  -4.9331187888240367e-04  -6.8054686768954610e-03  -5.8355692670442310e-03  -2.3604776253803939e-03  -3.1364551831831707e-03  -1.0797349195819074e-02  -4.6489644683984359e-02  -5.8239606113608677e-02  -6.7613691805555418e-02  -5.0939932719313234e-02  -6.9586613921400572e-02  -1.9669941854965282e-02  -1.3029524767195137e-03  -1.1172672119732958e-03  -1.3852055004638570e-03  -6.5824152856630716e-03  -9.9013800434738118e-04  -2.7034664915819302e-02  -8.6979110343575861e-02  -7.4804429480471179e-04  -6.8785058885881452e-04  -2.7392833265755860e-02  -2.3400648951303431e-02  -5.6757688530881679e-04  -8.1488004651585656e-03  -9.5169292786232533e-03  -4.9922146921823358e-03  -8.8769104774142314e-04  -1.1060362166325445e-02  -8.6820980610241762e-03  -5.7914849279797759e-02  -8.8161755080469408e-04  -4.7381177634075655e-03  -4.1041046531120748e-03  -3.3200512276963717e-02  -1.2289311489692904e-03  -1.8377313909911881e-02  -1.9083452596624045e-03  -5.2420019216132619e-03  -5.4698653953075260e-04  -3.3737883782010814e-02  -8.2253598816467075e-04  -5.3251253670173065e-04  -5.6625063624301175e-04  -4.3074930179311495e-03  -1.6868616356799505e-03  -9.5449498326487775e-02  -3.0550257431559437e-03  -9.5452368297825010e-02  -2.4498846584364443e-02  -4.4365073556009074e-03  -8.7619279497878899e-02  -5.3455465892785479e-04  -1.1119719611031429e-04  -7.3453355444992206e-03  -6.9814241668030097e-03  -6.3020010594222750e-03  -7.7635161541107093e-03  -8.8292735685148848e-03  -2.5520389322058426e-02  -2.0825611445367192e-02  -1.9127922877665033e-02  -1.5348259207015472e-02  -6.4280124237091563e-02  -9.5394098656957263e-02  -9.5883397451430400e-05  -9.5447309430081506e-02  -8.7326527280486538e-02  0.0000000000000000e+00  -2.6226792993884061e-04  -3.1908619420495892e-04  -1.5586993556201615e-02  -8.7292243024658254e-04  -8.1048225815029645e-04  -1.0107506379478859e-02  -6.7528493938358251e-03  -3.0744721432863563e-03  -2.7832760559962167e-03  -6.5649021158536156e-04  -1.2027501699655926e-03  -2.4938584755424339e-04  0.0000000000000000e+00  -1.1848664822514937e-04  0.0000000000000000e+00  -7.0727297477166367e-03  -3.8281782148849738e-04  -6.3321677467952835e-04  -4.3651050526625212e-03  -5.2201591262360332e-03  -1.0582413637569351e-03  -2.4351289023390294e-03  -2.4402652075429472e-02  -6.8994755208857464e-02  -5.4490211316702277e-03  -4.0144640122828389e-02  -1.0798091503033817e-02  -1.2904478702317493e-02  -2.0831113842554841e-03  -1.7823014542087838e-02  -2.7937214180286449e-04  -4.1320733368336443e-03  -3.3833728908015900e-03  -9.1871818807269588e-04  -1.6816481579893137e-03  -1.0446659687988543e-02  -5.0669250536941164e-02  -1.7032228363161310e-03  -1.9565601720226309e-03  -3.6154600840339959e-02  -2.8082692993128847e-04  -3.5819515240684621e-04  -2.3694896196000556e-04  -1.3190788681032475e-02  -1.1433521323085127e-02  -7.3150167420213469e-03  -6.7578857052666150e-03  -8.8282978550115847e-03  -1.0746700056554644e-03  -1.3156468624389232e-03  -8.4740251880285292e-04  -2.2412409879313028e-04  -4.5446070239633354e-04  -4.1403639356849316e-03  -6.7193109862470041e-02  -1.0604417951916122e-04  -3.8304251835144447e-03  -2.9650979160605671e-03  -3.4679223034012985e-03  -1.3425935144874804e-03  -4.9673822360689840e-03  -4.3337272792879676e-03  -2.6382769115177464e-03  -1.6341005398499940e-03  -1.9521778931115817e-03  -1.5451220920975332e-02  -2.6391521565101179e-03  -2.6233443541119894e-03  -2.2683590326908832e-03  -7.6646188307368333e-03  -3.8459686271727120e-02  -5.8303365971335754e-03  -1.2245440880545807e-03  -1.0178692105844905e-02  -3.7048517735101920e-03  -3.8332728461907307e-03  -1.9529413782028607e-03  -4.3245875172145590e-04  -3.5110369823909047e-03  -2.2448349346686448e-03  -2.6539717693434841e-03  -1.8283975218899460e-03  -9.9462455153586926e-03  -4.3052814783917259e-02  -5.6294687655227986e-02  -2.9903550649624796e-02  -5.2285923826849538e-03  -1.4871630472424995e-02  -7.8865168548226755e-02  -2.0520120759381882e-03  -1.9025831958878936e-03  -1.6413820245772784e-03  -1.3367960092951813e-03  -2.2915823716485498e-02  -8.8648503077076848e-02  -7.5833648554151836e-03  -7.4826776041891623e-03  -7.6505753473722210e-03  -5.1743365752687787e-03  -4.1312109503371872e-03  -3.6315999016565967e-03  -8.9513592600584044e-03  -3.8860880999760726e-02  -3.5144925207609715e-02  -1.0812420246382392e-03  -2.9443112195061448e-03  -2.8985639890255687e-03  -2.6076706913417052e-02  -3.1870778646296708e-03  -4.8605365581103559e-02  -6.9503558436969986e-04  -6.9919477731643603e-04  -9.4965899727448452e-05  -2.9323257219895411e-04  -4.3282902738188918e-02  -2.3451215599563997e-04  -1.2993329688195365e-02  -1.4736954332566858e-02  -5.4074271240521750e-03  -6.1632244900800834e-03  -5.6932368490570252e-03  -1.8234