<?xml version="1.0"?>
<VTKFile type="UnstructuredGrid"  version="0.1"  >
<UnstructuredGrid>
<Piece  NumberOfPoints="772" NumberOfCells="1276">
<Points>
<DataArray  type="Float64"  NumberOfComponents="3"  format="ascii">0.0001 1.570796326794897 0  0.0001 0 0  30 0 0  30 1.570796326794897 0  15.00005 0 0  15.00005 1.570796326794897 0  7.500075 0 0  7.500075 1.570796326794897 0  22.500025 1.570796326794897 0  22.500025 0 0  18.7500375 0 0  18.7500375 1.570796326794897 0  11.2500625 1.570796326794897 0  11.2500625 0 0  3.7500875 0 0  3.7500875 1.570796326794897 0  26.2500125 1.570796326794897 0  26.2500125 0 0  16.87504375 1.570796326794897 0  16.87504375 0 0  9.375068750000001 0 0  9.375068750000001 1.570796326794897 0  5.62508125 1.570796326794897 0  5.62508125 0 0  1.87509375 0 0  1.87509375 1.570796326794897 0  13.12505625 1.570796326794897 0  13.12505625 0 0  20.62503125 1.570796326794897 0  20.62503125 0 0  24.37501875 0 0  24.37501875 1.570796326794897 0  28.12500625 0 0  28.12500625 1.570796326794897 0  23.437521875 0 0  23.437521875 1.570796326794897 0  21.562528125 1.570796326794897 0  21.562528125 0 0  17.812540625 1.570796326794897 0  17.812540625 0 0  29.062503125 1.570796326794897 0  29.062503125 0 0  8.437571875 0 0  8.437571875 1.570796326794897 0  0.937596875 0 0  0.937596875 1.570796326794897 0  4.687584375 0 0  4.687584375 1.570796326794897 0  2.812590625 1.570796326794897 0  2.812590625 0 0  6.562578125 0 0  6.562578125 1.570796326794897 0  10.312565625 1.570796326794897 0  10.312565625 0 0  12.187559375 0 0  12.187559375 1.570796326794897 0  14.062553125 1.570796326794897 0  14.062553125 0 0  15.937546875 0 0  15.937546875 1.570796326794897 0  27.187509375 0 0  27.187509375 1.570796326794897 0  25.312515625 1.570796326794897 0  25.312515625 0 0  19.687534375 0 0  19.687534375 1.570796326794897 0  12.6563078125 0.7853981633974484 0  8.9063203125 0.7853981633974484 0  16.4062953125 0.7853981633974484 0  17.3437921875 0.7853981633974482 0  18.2812890625 0.7853981633974484 0  23.9062703125 0.7853981633974484 0  22.9687734375 0.7853981633974482 0  20.1562828125 0.7853981633974484 0  21.0937796875 0.7853981633974482 0  22.0312765625 0.7853981633974484 0  27.6562578125 0.7853981633974484 0  28.5937546875 0.7853981633974482 0  30 0.7853981633974483 0  9.843817187500001 0.7853981633974482 0  13.5938046875 0.7853981633974482 0  24.8437671875 0.7853981633974482 0  4.2188359375 0.7853981633974483 0  1.4063453125 0.7853981633974483 0  0.0001 0.7853981633974483 0  2.3438421875 0.7853981633974483 0  3.2813390625 0.7853981633974482 0  5.156332812500001 0.7853981633974483 0  7.968823437499999 0.7853981633974484 0  6.0938296875 0.7853981633974483 0  7.0313265625 0.7853981633974483 0  15.4687984375 0.7853981633974482 0  14.5313015625 0.7853981633974484 0  11.7188109375 0.7853981633974482 0  10.7813140625 0.7853981633974484 0  19.2187859375 0.7853981633974483 0  26.7187609375 0.7853981633974483 0  25.7812640625 0.7853981633974483 0  29.29687734375 0.8983345617863304 0  0.70322265625 0.898334561786331 0  0.4688484375 0 0  29.5312515625 0 0  0.4688484375 1.570796326794897 0  29.5312515625 1.570796326794897 0  30 1.178097245096172 0  24.37501875 1.038215903441252 0  24.35244533187101 0.5191079517206258 0  23.9062703125 0 0  25.312515625 0.5325804233536451 0  25.28994220687101 1.051688375074271 0  24.8437671875 1.570796326794897 0  13.12505625 1.038215903441252 0  13.10248283187101 0.5191079517206258 0  12.6563078125 0 0  13.5938046875 1.570796326794897 0  9.375068750000001 1.038215903441252 0  9.352495331871012 0.5191079517206258 0  8.9063203125 0 0  9.843817187500001 1.570796326794897 0  28.12500625 1.038215903441252 0  28.10243283187101 0.5191079517206258 0  27.6562578125 0 0  28.5937546875 1.570796326794897 0  27.187509375 0.5325804233536451 0  27.16493595687101 1.051688375074271 0  26.7187609375 1.570796326794897 0  28.5937546875 0 0  27.6562578125 1.570796326794897 0  20.62503125 1.038215903441252 0  20.60245783187101 0.5191079517206258 0  20.1562828125 0 0  21.562528125 0.5325804233536451 0  21.53995470687101 1.051688375074271 0  21.0937796875 1.570796326794897 0  22.0312765625 0 0  19.687534375 0.5325804233536451 0  19.66496095687101 1.051688375074271 0  19.2187859375 1.570796326794897 0  21.0937796875 0 0  20.1562828125 1.570796326794897 0  22.9687734375 1.570796326794897 0  23.437521875 1.038215903441251 0  23.41494845687101 0.5191079517206257 0  22.9687734375 0 0  22.500025 0.532580423353645 0  22.52259841812899 1.051688375074271 0  22.0312765625 1.570796326794897 0  24.8437671875 0 0  23.9062703125 1.570796326794897 0  17.812540625 1.038215903441252 0  17.78996720687101 0.5191079517206258 0  17.3437921875 0 0  18.2812890625 1.570796326794897 0  16.87504375 1.038215903441252 0  16.85247033187101 0.5191079517206258 0  16.4062953125 0 0  18.2812890625 0 0  17.3437921875 1.570796326794897 0  16.4062953125 1.570796326794897 0  8.437571875 0.5325804233536451 0  8.414998456871011 1.051688375074271 0  7.968823437499999 1.570796326794897 0  9.843817187500001 0 0  8.9063203125 1.570796326794897 0  13.5938046875 0 0  12.6563078125 1.570796326794897 0  4.687584375 1.038215903441251 0  4.665010956871011 0.5191079517206257 0  4.2188359375 0 0  6.562578125 1.038215903441251 0  6.540004706871011 0.5191079517206257 0  6.0938296875 0 0  15.00005 0.532580423353645 0  14.97747658187101 1.051688375074271 0  14.5313015625 1.570796326794897 0  11.2500625 0.532580423353645 0  11.22748908187101 1.051688375074271 0  10.7813140625 1.570796326794897 0  4.2188359375 1.570796326794897 0  1.4063453125 0 0  1.4063453125 1.570796326794897 0  7.0313265625 1.570796326794897 0  7.0313265625 0 0  6.0938296875 1.570796326794897 0  7.968823437499999 0 0  5.156332812500001 0 0  5.156332812500001 1.570796326794897 0  3.2813390625 1.570796326794897 0  3.7500875 1.038215903441252 0  3.727514081871012 0.519107951720626 0  3.2813390625 0 0  2.812590625 1.038215903441252 0  2.790017206871012 0.5191079517206258 0  2.3438421875 0 0  1.87509375 1.038215903441252 0  1.852520331871012 0.5191079517206258 0  2.3438421875 1.570796326794897 0  10.7813140625 0 0  10.312565625 0.5325804233536446 0  10.33513904312899 1.05168837507427 0  11.7188109375 0 0  11.7188109375 1.570796326794897 0  12.187559375 1.038215903441252 0  12.16498595687101 0.5191079517206261 0  14.5313015625 0 0  14.062553125 0.5325804233536446 0  14.08512654312899 1.05168837507427 0  15.4687984375 0 0  15.4687984375 1.570796326794897 0  15.937546875 1.038215903441252 0  15.91497345687101 0.5191079517206261 0  7.500075 1.038215903441252 0  7.477501581871013 0.5191079517206261 0  5.62508125 0.5325804233536444 0  5.647654668128987 1.05168837507427 0  25.7812640625 0 0  25.7812640625 1.570796326794897 0  26.7187609375 0 0  18.7500375 1.038215903441253 0  18.72746408187101 0.5191079517206263 0  19.2187859375 0 0  26.2500125 1.038215903441253 0  26.22743908187102 0.5191079517206267 0  0.4072447431321764 0.4958135491426953 0  0.8735311842188216 0.4630265839985266 0  29.00089943063218 0.4958135491426955 0  29.59285525686782 0.4958135491426947 0  28.82812890625 1.178097245096172 0  1.17197109375 1.178097245096172 0  0.0001 1.178097245096172 0  8.81556873678424 0.3926990816987242 0  17.25304061178424 1.178097245096172 0  22.12202813821576 0.3926990816987242 0  23.8012843462846 0.3926990816987242 0  20.06553123678424 0.3926990816987242 0  21.16195784508677 1.178097245096172 0  27.56550623678424 0.3926990816987242 0  9.75306561178424 1.178097245096172 0  13.50305311178424 1.178097245096172 0  24.91194534508677 1.178097245096172 0  12.72448597008677 0.3926990816987242 0  22.90059527991323 1.178097245096172 0  16.47447347008677 0.3926990816987242 0  18.1763030962846 0.3926990816987242 0  8.05957501321576 0.3926990816987241 0  3.19058748678424 1.178097245096172 0  10.87206563821576 0.3926990816987244 0  11.6138249712846 1.178097245096172 0  14.62205313821576 0.3926990816987244 0  15.3638124712846 1.178097245096172 0  0.0001 0.3926990816987241 0  25.87201563821576 1.178097245096173 0  25.69051248678424 0.3926990816987245 0  5.24708438821576 0.3926990816987241 0  7.099504720086773 0.3926990816987241 0  7.12207813821576 1.178097245096172 0  2.2388562212846 0.3926990816987241 0  1.474523470086772 0.3926990816987241 0  19.12803436178424 1.178097245096173 0  26.62800936178424 1.178097245096173 0  4.1138499712846 0.3926990816987241 0  4.12808436178424 1.178097245096172 0  6.00307811178424 0.3926990816987242 0  6.025651529913227 1.178097245096172 0  5.06558123678424 1.178097245096172 0  2.43459376321576 1.178097245096172 0  26.80951251321576 0.3926990816987246 0  19.30953751321576 0.3926990816987246 0  30 0.3926990816987241 0  28.62100159030748 0.3926990816987241 0  18.37204063821576 1.178097245096172 0  15.37804686178424 0.3926990816987243 0  13.68455626321576 0.3926990816987241 0  11.62805936178424 0.3926990816987243 0  9.934568763215761 0.3926990816987241 0  3.1763530962846 0.3926990816987241 0  10.71313590491323 1.178097245096173 0  14.46312340491323 1.178097245096173 0  12.56555623678424 1.178097245096172 0  8.997071888215761 1.178097245096172 0  7.87807186178424 1.178097245096172 0  16.31554373678424 1.178097245096172 0  17.2388062212846 0.3926990816987241 0  23.99702188821576 1.178097245096172 0  22.87802186178424 0.3926990816987241 0  20.24703438821576 1.178097245096172 0  27.74700938821576 1.178097245096172 0  21.18453126321576 0.392699081698724 0  21.9262905962846 1.178097245096172 0  24.93451876321576 0.392699081698724 0  0.3291934204450424 0.9817477042468103 0  29.67090657955496 0.9817477042468103 0  29.29687734375 0.2808542915315053 0  1.546011527721087 1.221149260967534 0  28.45408847227891 1.221149260967535 0  22.2633395751707 1.298372286280418 0  29.179690234375 1.234565444290613 0  0.820409765625 1.234565444290614 0  1.045021943039761 0.7810895666963746 0  15.70317265625 1.304506115118074 0  11.95318515625 1.304506115118074 0  28.94734709363929 0.8452694778121677 0  26.00541830123088 0.258637118680
[...]
<PointData  Scalars="f_18-1"> 
<DataArray  type="Float64"  Name="f_18-1"  format="ascii">8.4984800390120296e-01  8.4984800965187068e-01  1.0000000000000000e+00  1.0000000000000000e+00  9.9681509623341702e-01  9.9681373253986705e-01  9.8406317775824292e-01  9.8405616349832437e-01  9.9917341401160353e-01  9.9917353470330916e-01  9.9834190850694549e-01  9.9834282696868459e-01  9.9351055613650718e-01  9.9351328947891671e-01  9.3611695637889780e-01  9.3611051964930025e-01  9.9967459821441940e-01  9.9967435603267851e-01  9.9770476252533913e-01  9.9770547928106423e-01  9.9017516217422419e-01  9.9018516410774138e-01  9.7085859638097782e-01  9.7083671546694139e-01  8.7999619601949741e-01  8.7998836028263339e-01  9.9551390953867758e-01  9.9551431830678749e-01  9.9881443825600735e-01  9.9881421942597992e-01  9.9945257884002292e-01  9.9945271181479778e-01  9.9985345069495024e-01  9.9985346517185347e-01  9.9932161601100644e-01  9.9932103964221686e-01  9.9900572857402514e-01  9.9900592020458645e-01  9.9804774493462012e-01  9.9804911590206846e-01  9.9993020010828748e-01  9.9993035178862577e-01  9.8763112750291016e-01  9.8763929128693440e-01  8.5881900268010480e-01  8.5882334971300534e-01  9.5748010838139630e-01  9.5762927957624711e-01  9.0820443378424442e-01  9.0820805761419787e-01  9.7880001445389964e-01  9.7880923301677547e-01  9.9207424829311186e-01  9.9207672338948583e-01  9.9462383299340829e-01  9.9462771687586760e-01  9.9622864102795050e-01  9.9622972330556281e-01  9.9729759228231496e-01  9.9729854749922886e-01  9.9976864942505583e-01  9.9976863052775600e-01  9.9956982421386453e-01  9.9956992269181633e-01  9.9859551596428142e-01  9.9859536963464146e-01  9.9510032049489461e-01  9.8901633330686589e-01  9.9751514942987562e-01  9.9788811419513812e-01  9.9820487328198582e-01  9.9939076256932247e-01  9.9925185101781111e-01  9.9871166626254315e-01  9.9891612182507616e-01  9.9909471903853009e-01  9.9981270308625225e-01  9.9989310951054544e-01  1.0000000000000000e+00  9.9120431943226561e-01  9.9589446259864256e-01  9.9951450908829642e-01  9.4794555538654368e-01  8.6806160614979444e-01  8.4984800503317581e-01  8.9369038402862655e-01  9.2267563091729676e-01  9.6517741217412467e-01  9.8602133543581205e-01  9.7538702432269309e-01  9.8174826513837676e-01  9.9707198009105080e-01  9.9653953923165672e-01  9.9410845744151932e-01  9.9284383420614941e-01  9.9847698211312985e-01  9.9972371247015346e-01  9.9962481623214650e-01  9.9994852496922948e-01  8.5537130063190481e-01  8.5288389974499856e-01  9.9996592938977225e-01  8.5293912282160611e-01  9.9996590220973081e-01  1.0000000000000000e+00  9.9945447970060319e-01  9.9945154982530837e-01  9.9938914590739647e-01  9.9957117623436631e-01  9.9956843833521858e-01  9.9951290965884687e-01  9.9552305426143883e-01  9.9550324836643866e-01  9.9509606834011910e-01  9.9588965554348097e-01  9.9021177259472204e-01  9.9015716883966576e-01  9.8901376874174607e-01  9.9119711534220689e-01  9.9985405567669439e-01  9.9985213474250245e-01  9.9981222501889588e-01  9.9989269693820981e-01  9.9976948368516472e-01  9.9976729674630660e-01  9.9972282505935561e-01  9.9989285072903100e-01  9.9981211335120834e-01  9.9881752063810725e-01  9.9881261845057479e-01  9.9870912651459642e-01  9.9900816262513537e-01  9.9900380545597500e-01  9.9891324732983944e-01  9.9909239105904846e-01  9.9859891246140109e-01  9.9859324440857411e-01  9.9847360488066150e-01  9.9891352619516904e-01  9.9870867168916955e-01  9.9924964417320095e-01  9.9932343551469205e-01  9.9932017242263460e-01  9.9924990051631501e-01  9.9917572438254798e-01  9.9917929872973987e-01  9.9909223806299730e-01  9.9951304446691325e-01  9.9938895467982647e-01  9.9805356126460099e-01  9.9804598607217121e-01  9.9788418179727467e-01  9.9820144844065628e-01  9.9771006867790291e-01  9.9770109349517733e-01  9.9751091266677439e-01  9.9820149059432628e-01  9.9788360464747705e-01  9.9751021903458292e-01  9.8766713145601515e-01  9.8759910794613415e-01  9.8601015330129671e-01  9.9119899760761554e-01  9.8901513794796092e-01  9.9589041178125670e-01  9.9509503843434799e-01  9.5775040662892708e-01  9.5730764855156292e-01  9.4792021894234590e-01  9.7893144593313108e-01  9.7877813178117490e-01  9.7530420146413421e-01  9.9681971655900947e-01  9.9680735730721337e-01  9.9653526618508481e-01  9.9352166449086088e-01  9.9349377012925233e-01  9.9283912442274747e-01  9.4790318568358412e-01  8.6811901293901783e-01  8.6808787858538217e-01  9.8171262188293007e-01  9.8171481229066915e-01  9.7532189665553415e-01  9.8600378601859762e-01  9.6515315311186467e-01  9.6512631430846485e-01  9.2263376601626834e-01  9.3620342858445404e-01  9.3554944601467815e-01  9.2264123216546645e-01  9.0824128111535851e-01  9.0752437824912502e-01  8.9366856801441752e-01  8.7995285882599017e-01  8.7932684268242955e-01  8.9367593168145976e-01  9.9284107160766244e-01  9.9209225145253044e-01  9.9213270693618150e-01  9.9410400246752439e-01  9.9410259140544976e-01  9.9463811976098515e-01  9.9461430597540945e-01  9.9653634850026418e-01  9.9623636262120674e-01  9.9625177498600392e-01  9.9706806603357168e-01  9.9706714187043644e-01  9.9730423052742367e-01  9.9729380484611030e-01  9.8411892292746739e-01  9.8401405138681619e-01  9.7093403972560477e-01  9.7117654270413323e-01  9.9962364664035686e-01  9.9962363539886323e-01  9.9972285293996599e-01  9.9834645500288954e-01  9.9834021900298142e-01  9.9847376203061977e-01  9.9967554773468070e-01  9.9967329227670632e-01  8.5227314562430090e-01  8.5770671801856069e-01  9.9992577895521451e-01  9.9997065033991983e-01  9.9991211842600503e-01  8.6305479449795841e-01  8.4984800432623597e-01  9.8879083330672624e-01  9.9785491057059328e-01  9.9911048637344591e-01  9.9937600961467665e-01  9.9869035957355345e-01  9.9892936968885271e-01  9.9980454458193757e-01  9.9103831501661210e-01  9.9582847472166736e-01  9.9952265121089923e-01  9.9516808743755447e-01  9.9924066038543424e-01  9.9754469481758501e-01  9.9817251139085550e-01  9.8638530651401202e-01  9.1995324475357687e-01  9.9299090695203052e-01  9.9398868784236749e-01  9.9659798790738308e-01  9.9701816428493040e-01  8.4984800980746489e-01  9.9963468178260440e-01  9.9961462038305215e-01  9.6642621879699830e-01  9.8214976713165647e-01  9.8228465327273429e-01  8.9049286620477164e-01  8.6965645239297107e-01  9.9845240389828549e-01  9.9971450999064082e-01  9.4553013099050720e-01  9.4589383952025330e-01  9.7461966191625815e-01  9.7480753242985851e-01  9.6392854658871829e-01  8.9645401506681199e-01  9.9973277937901528e-01  9.9850138153753654e-01  1.0000000000000000e+00  9.9989549787462284e-01  9.9823315862819473e-01  9.9702549370505145e-01  9.9596588421671661e-01  9.9400449196740348e-01  9.9139733210062242e-01  9.1951438172195477e-01  9.9275161810047841e-01  9.9649954363931881e-01  9.9501954022817696e-01  9.8928461644438648e-01  9.8570257008728557e-01  9.9747604161208414e-01  9.9784977551940013e-01  9.9940331967519891e-01  9.9923725753432724e-01  9.9873275970333752e-01  9.9982090652778421e-01  9.9893401101346557e-01  9.9907546209739495e-01  9.9952556764780920e-01  8.5180822626352304e-01  9.9997639055950061e-01  9.9994849868398117e-01  8.7133977673837748e-01  9.9988171630097922e-01  9.9913473260380425e-01  9.9993960394979342e-01  8.5697325325450480e-01  8.6064133584989944e-01  9.9718992358724012e-01  9.9438288260321228e-01  9.9992149159986732e-01  9.9964917021528443e-01  9.9718499255043647e-01  9.9437057937327111e-01  9.2961999053766220e-01  9.9827031206337746e-01  9.0089543928725313e-01  9.8685497387205412e-01  9.9797153420465967e-01  9.9876469427954695e-01  9.9983352445865958e-01  9.8964472790277369e-01  9.9942261100362673e-01  9.7725618484165955e-01  9.5314624305787321e-01  9.9928755220937815e-01  9.9853539895756926e-01  9.9974561062152933e-01  9.9979060097227501e-01  9.9865391978474871e-01  9.9935652695650123e-01  9.8836279040528918e-01  9.9812843341885016e-01  9.9607035965249113e-01  9.9167146632218495e-01  9.9905142410440329e-01  9.9797134017815947e-01  9.9532203527650820e-01  9.9761517597173499e-01  9.9071843288828076e-01  9.9570920390230622e-01  9.9948367447437647e-01  9.9886548111726281e-01  8.8652511434832970e-01  9.5317160743128271e-01  9.2961888934073755e-01  9.8509691375689157e-01  9.8043013007208402e-01  9.6836046808444853e-01  9.6164044097384227e-01  9.9248467369107563e-01  9.9639186321890072e-01  9.9969915176730539e-01  9.9841054760320169e-01  9.9959723164228831e-01  9.7725382883501899e-01  9.8031023406526918e-01  9.9928743585477942e-01  9.9948218034748726e-01  9.9886311897650659e-01  9.9485747599500896e-01  9.9740258028560558e-01  8.6301182523120745e-01  9.9320641136464560e-01  9.9668624840248021e-01  9.9987017139485634e-01  9.9994837645165335e-01  8.5537686064995744e-01  9.9998309900760218e-01  9.9997876914158312e-01  8.5124404270937370e-01  8.5161242993790132e-01  9.9991182775901721e-01  8.6392057880604056e-01  8.5443351585964966e-01  9.9493279725859507e-01  9.9743758697418006e-01  9.8076320176453158e-01  9.9906586647507334e-01  9.9903934987675924e-01  9.8077983376254940e-01  9.5154010507961362e-01  9.5425967722573979e-01  9.9644146685715451e-01  9.9635138184114369e-01  9.9260536087430162e-01  9.9237760567482669e-01  9.2740862110635081e-01  9.3125142607093137e-01  9.9601567367344823e-01  9.9610964272379499e-01  9.9152663083383175e-01  9.9176419613908384e-01  9.9794584930427976e-01  9.9799231657228515e-01  8.8835712422864310e-01  8.8360420802912187e-01  8.7541195115806825e-01  9.9814963355648800e-01  9.9809558158314005e-01  9.9936587793898513e-01  9.9934223890850093e-01  9.9929794337995459e-01  9.9524815909445308e-01  9.9536615129751993e-01  9.9758191189395273e-01  9.9763832500449745e-01  9.9427838669824031e-01  9.9445022235439440e-01  9.9714497166539584e-01  9.9722192853771607e-01  9.9960244316257840e-01  9.8544605764700932e-01  9.8484358832638619e-01  9.9979476797952327e-01  9.9866521730881175e-01  9.6724012627894096e-01  9.6894291196932547e-01  9.9949520888489884e-01  9.9947724029203344e-01  9.9888445074320475e-01  9.9885501686141898e-01  9.6295547491073796e-01  9.6069610014353424e-01  9.9970829503424730e-01  9.9969381510772404e-01  9.8848491389868787e-01  9.9090001336728284e-01  9.9058591481035130e-01  9.9577819198516415e-01  9.9566294367815256e-01  9.9843552912635214e-01  9.9839594966715917e-01  9.7962084266857563e-01  9.7765209173254952e-01  9.9738880971226118e-01  9.9482332052857958e-01  9.9941211120023654e-01  9.9943334835549691e-01  8.9839203821888991e-01  9.0330248987561068e-01  9.9911868415176164e-01  9.9914714274944039e-01  9.9765054234022976e-01  9.9531063186047142e-01  9.9919876109384265e-01  9.9954174646610305e-01  9.9896020966761201e-01  8.7376965804843976e-01  9.7240621189719645e-01  9.8343127377916173e-01  9.9633163920390932e-01  9.9233516104634545e-01  8.7678385591343666e-01  9.9542007541588196e-01  9.9955302042844363e-01  9.9897871519838122e-01  9.9825548460995073e-01  9.9830527364734301e-01  9.9372369654606996e-01  9.9690645497917085e-01  9.9779924141226484e-01  9.9987648772594229e-01  9.1540642354077473e-01  9.4220478283376174e-01  9.9927599462947891e-01  9.9995935537545844e-01  8.5373733384098816e-01  9.9964226853059646e-01  9.9965978132653532e-01  9.9982724880662432e-01  9.9984010326445394e-01  9.9874908344827096e-01  9.9878219766467347e-01  9.8945911888867299e-01  9.8981064472146441e-01  9.8661923159687948e-01  9.8706483485935892e-01  9.7669115080788893e-01  9.9973936985123479e-01  9.9975258744354201e-01  9.9851911683459871e-01  9.9855410305970471e-01  9.9428140050695535e-01  9.9714659968254027e-01  9.9793644290311889e-01  9.2660806479361402e-01  9.5094153366915080e-01  9.9959355556203078e-01  9.9977880707163036e-01  9.9862331267298188e-01  9.8795055788527997e-01  9.3926449829240310e-01  9.9974606394898957e-01  9.9975803693131882e-01  9.9853580284472054e-01  9.9856830222584869e-01  9.9959717347960830e-01  9.9958434956857034e-01  9.9367475024562424e-01  9.9688376780822252e-01  9.9667910577158547e-01  9.9318809450243173e-01  9.9983305571178804e-01  9.9984380617611213e-01  9.9876248697005121e-01  9.9879086986558185e-01  9.9942130547668928e-01  9.9943836778371364e-01  9.9735652746781622e-01  9.8506371127447090e-01  9.9475630213532329e-01  9.0089129719917116e-01  9.1185673036092962e-01  9.8357065412397948e-01  9.8685412819089990e-01  9.9561745339087171e-01  9.8961535527020739e-01  9.9047297886653562e-01  9.9978396082744092e-01  9.9863643678514746e-01  9.9915531305181027e-01  9.9775391356377885e-01  9.8728236855401108e-01  9.8814703902238210e-01  9.7213978737283402e-01  9.6164589945512180e-01  9.5974596002437473e-01  9.9831123057114501e-01  9.9954188898650098e-01  9.9898505130304782e-01  9.9188214669260510e-01  9.9615339860820096e-01  9.6812074564005979e-01  9.9920092634549607e-01  9.9968742660319077e-01  9.9840946031611411e-01  9.9964946778854458e-01  9.9928024626881462e-01  9.3905835506482582e-01  9.9687870966885861e-01  9.9366376000738077e-01  8.8423718642482552e-01  9.1160297352486652e-01  9.9903134422610418e-01  9.9808821315347784e-01  9.9933869080703042e-01  9.9776011693323763e-01  9.9986319034004623e-01  9.9779933513369767e-01  9.9667422278204931e-01  9.9317314215639629e-01  9.9921696343393041e-01  9.9954129381345036e-01  9.9895978745255865e-01  9.1541687852787434e-01  8.7814512838989711e-01  9.4221322056769308e-01  9.7344097318278622e-01  9.8329931780197521e-01  9.9664878042401828e-01  9.9311398894820602e-01  9.9992125146194211e-01  8.5194206244823478e-01  9.9998238247119942e-01  9.9949309267519015e-01  9.9888830565473530e-01  9.7681802465247125e-01  9.7357941637203105e-01  9.9921942010013576e-01  9.9953939238869316e-01  9.9895671371095973e-01  9.9966102492248265e-01  9.9838409999481315e-01  9.6927016943590483e-01  9.8477243809207082e-01  9.9333885371706865e-01  9.9674219373630146e-01  9.8985443186831901e-01  9.0401928557901812e-01  9.9955492474655716e-01  8.5862909193065384e-01  9.9990735399504493e-01  8.5140372759741612e-01  9.9996430821383675e-01  8.5472294129834669e-01  1.0000000000000000e+00  9.9998283226027052e-01  9.9994824348502687e-01  8.5541164482641163e-01  9.8838072544002809e-01  9.9979154819758842e-01  9.9865677003735243e-01  9.9834159525136723e-01  8.7375467748877833e-01  9.9987871786112137e-01  9.9956441100072879e-01  9.9676779749901512e-01  9.9339553209401310e-01  9.9986438154562485e-01  9.7160204079853685e-01  8.5301705764014923e-01  9.8762976123156643e-01  9.9967450377025868e-01  9.9859538455751740e-01  9.9976828858241384e-01  9.7892539422074487e-01  9.9921211473706451e-01  9.9896052189963103e-01  9.8834167963686681e-01  9.9779610611840719e-01  9.9865299682892161e-01  9.9979062448992617e-01  9.9246848741584792e-01  9.9638545041957982e-01  9.9921208032039466e-01  9.9987331411448555e-01  9.9740652316252765e-01  9.9486652087131078e-01  9.9886440221225292e-01  9.9948309910753519e-01  9.8033228989346088e-01  9.7716328207052994e-01  9.9840906361851955e-01  9.9969892563347007e-01  9.9638557373445424e-01  9.9246751280082179e-01  9.6157958197121041e-01  9.8033676014454385e-01  9.5296188916568514e-01  9.9886469952975698e-01  9.9948323989863186e-01  9.9570570055117313e-01  9.9070572391958422e-01  9.9760887384350727e-01  9.9530832920318024e-01  9.9904962356020199e-01  9.9164608013083966e-01  9.9606205569294526e-01  9.9812609180639489e-01  9.8834615972022211e-01  9.9935549736712048e-01  9.9865269242723986e-01  9.9979055840613795e-01  9.9928612278229823e-01  9.5298487599944537e-01  9.7714806214752692e-01  9.9928587977689487e-01  9.9942131787836430e-01  9.8961664023536788e-01  9.9983308026760020e-01  9.9876256806908470e-01  9.9796775907238899e-01  9.8684851402406426e-01  9.9796728330131934e-01  9.9827303370154730e-01  9.9437145598778176e-01  9.9718536650712020e-01  9.9964934097399616e-01  9.9437036939281143e-01  9.9718458818045630e-01  9.9913325608171788e-01  9.9994835126686288e-01  9.9991170443079802e-01  9.9998308563106741e-01  9.9761014188584096e-01  9.9740677100496389e-01  9.9486824800010809e-01  9.9570703964631058e-01  9.9071128907454487e-01  9.9913364384415060e-01  9.9827355046899890e-01  9.9165357974745028e-01  9.9606451177648037e-01  9.9969905344208587e-01  9.9904970270816662e-01  9.9812683340165298e-01  9.9935589741873720e-01  9.9779668899745766e-01  9.9987337463759440e-01  8.6313654247368088e-01  8.6308503076734500e-01  8.5124402972466751e-01  9.2949255444039269e-01  8.8670650989092248e-01  9.0090451956936368e-01  9.2949977823309149e-01  9.4225305123726466e-01  9.1549047177793830e-01  9.4226456766249378e-01  8.8670616034628225e-01  9.1549514113801367e-01  9.7321390416439146e-01  9.8294337007656674e-01  9.6812110016741670e-01  9.8506363276097031e-01  9.7321534459902670e-01  9.8294323558607799e-01  9.9694470293763515e-01  9.9381830718094377e-01  9.9667673462370210e-01  9.9318210192999279e-01  9.9694351583955509e-01  9.9381611944109505e-01  9.9959697779472168e-01  9.9974592774872306e-01  9.9853522705816189e-01  9.9918818724094705e-01  8.5751312885144859e-01  9.9932255434674178e-01  9.9805123401567675e-01  9.9020261319525416e-01  9.5767595551257789e-01  9.9881603415331655e-01  9.9945363909513563e-01  9.9698753364129034e-01  9.9391484360204152e-01  8.7332191454752195e-01  9.9825670854986104e-01  9.9989795265399517e-01  9.9729612765682352e-01  9.9462098899393347e-01  8.7153078570123743e-01  9.9992402117976786e-01  8.6021169438957268e-01  8.4984800977427255e-01  8.6616558811504007e-01  8.6549444477354076e-01  9.8292613568723297e-01  9.9989831064110146e-01  8.5403596725616648e-01  9.9995425278703864e-01  9.9996561102006232e-01  9.9964248181551807e-01  9.9992780862101294e-01  9.9899484108678061e-01  8.9847029966983083e-01  9.9941232357664944e-01  9.7886417875725218e-01  9.8943652020284178e-01  9.9874746301518846e-01  9.9983429836906690e-01  8.8875004022725512e-01  9.9815351585294443e-01  9.9936774103176707e-01  9.8256576680229568e-01  9.9990380024486170e-01  9.9913741091725028e-01  9.9761066714534363e-01  9.9530950234742310e-01  9.9250184991274748e-01  9.9639926207978757e-01  9.9993351889993953e-01  9.9693146437041602e-01  9.9378562490327671e-01  9.3746088877616951e-01  9.9772863076981166e-01  9.9854240122446347e-01  9.9974813370077842e-01  9.9840951490015029e-01  9.9969867202734641e-01  9.9570506319240160e-01  9.9070573960335040e-01  9.6839943923783933e-01  9.8507092697051979e-01  9.6154577028286070e-01  9.8693332319938121e-01  9.9923201983981202e-01  9.9893899520740803e-01  9.9952862397543352e-01  9.9523636288287098e-01  8.7157647554392870e-01  9.7433497806245306e-01  9.8237549163366478e-01  9.9756331997084091e-01  9.9646503346273962e-01  9.9266652046007953e-01  9.9169272680130394e-01  9.9608028386817948e-01  9.9985212965877535e-01  8.5723235767453898e-01  </DataArray> 
</PointData> 
</Piece>
</UnstructuredGrid>
</VTKFile>